 Entering Gaussian System, Link 0=g09
 Input=ligand_scan.gau
 Output=ligand_scan.log
 Initial command:
 /home/dgomes/software//g09/l1.exe /tmp/Gau-5793.inp -scrdir=/tmp/
 Entering Link 1 = /home/dgomes/software//g09/l1.exe PID=      5795.
  
 Copyright (c) 1988,1990,1992,1993,1995,1998,2003,2009, Gaussian, Inc.
                  All Rights Reserved.
  
 This is part of the Gaussian(R) 09 program.  It is based on
 the Gaussian(R) 03 system (copyright 2003, Gaussian, Inc.),
 the Gaussian(R) 98 system (copyright 1998, Gaussian, Inc.),
 the Gaussian(R) 94 system (copyright 1995, Gaussian, Inc.),
 the Gaussian 92(TM) system (copyright 1992, Gaussian, Inc.),
 the Gaussian 90(TM) system (copyright 1990, Gaussian, Inc.),
 the Gaussian 88(TM) system (copyright 1988, Gaussian, Inc.),
 the Gaussian 86(TM) system (copyright 1986, Carnegie Mellon
 University), and the Gaussian 82(TM) system (copyright 1983,
 Carnegie Mellon University). Gaussian is a federally registered
 trademark of Gaussian, Inc.
  
 This software contains proprietary and confidential information,
 including trade secrets, belonging to Gaussian, Inc.
  
 This software is provided under written license and may be
 used, copied, transmitted, or stored only in accord with that
 written license.
  
 The following legend is applicable only to US Government
 contracts under FAR:
  
                    RESTRICTED RIGHTS LEGEND
  
 Use, reproduction and disclosure by the US Government is
 subject to restrictions as set forth in subparagraphs (a)
 and (c) of the Commercial Computer Software - Restricted
 Rights clause in FAR 52.227-19.
  
 Gaussian, Inc.
 340 Quinnipiac St., Bldg. 40, Wallingford CT 06492
  
  
 ---------------------------------------------------------------
 Warning -- This program may not be used in any manner that
 competes with the business of Gaussian, Inc. or will provide
 assistance to any competitor of Gaussian, Inc.  The licensee
 of this program is prohibited from giving any competitor of
 Gaussian, Inc. access to this program.  By using this program,
 the user acknowledges that Gaussian, Inc. is engaged in the
 business of creating and licensing software in the field of
 computational chemistry and represents and warrants to the
 licensee that it is not a competitor of Gaussian, Inc. and that
 it will not use this program in any manner prohibited above.
 ---------------------------------------------------------------
  

 Cite this work as:
 Gaussian 09, Revision A.01,
 M. J. Frisch, G. W. Trucks, H. B. Schlegel, G. E. Scuseria, 
 M. A. Robb, J. R. Cheeseman, G. Scalmani, V. Barone, B. Mennucci, 
 G. A. Petersson, H. Nakatsuji, M. Caricato, X. Li, H. P. Hratchian, 
 A. F. Izmaylov, J. Bloino, G. Zheng, J. L. Sonnenberg, M. Hada, 
 M. Ehara, K. Toyota, R. Fukuda, J. Hasegawa, M. Ishida, T. Nakajima, 
 Y. Honda, O. Kitao, H. Nakai, T. Vreven, J. A. Montgomery, Jr., 
 J. E. Peralta, F. Ogliaro, M. Bearpark, J. J. Heyd, E. Brothers, 
 K. N. Kudin, V. N. Staroverov, R. Kobayashi, J. Normand, 
 K. Raghavachari, A. Rendell, J. C. Burant, S. S. Iyengar, J. Tomasi, 
 M. Cossi, N. Rega, J. M. Millam, M. Klene, J. E. Knox, J. B. Cross, 
 V. Bakken, C. Adamo, J. Jaramillo, R. Gomperts, R. E. Stratmann, 
 O. Yazyev, A. J. Austin, R. Cammi, C. Pomelli, J. W. Ochterski, 
 R. L. Martin, K. Morokuma, V. G. Zakrzewski, G. A. Voth, 
 P. Salvador, J. J. Dannenberg, S. Dapprich, A. D. Daniels, 
 O. Farkas, J. B. Foresman, J. V. Ortiz, J. Cioslowski, 
 and D. J. Fox, Gaussian, Inc., Wallingford CT, 2009.
 
 ******************************************
 Gaussian 09:  EM64L-G09RevA.01  8-May-2009
                19-Feb-2020 
 ******************************************
 %chk=molecule
 %mem=8Gb
 ----------------------------
 #pm6 opt=modredundant nosymm
 ----------------------------
 1/14=-1,18=120,19=15,26=1,38=1/1,3;
 2/9=110,12=2,15=1,17=6,18=5,40=1/2;
 3/5=2,16=1,25=1,41=3900000,71=1/1,2,3;
 4/35=1/1;
 5/5=2,35=1,38=5/2;
 6/7=2,8=2,9=2,10=2,28=1/1;
 7/30=1/1,2,3,16;
 1/14=-1,18=20,19=15/3(2);
 2/9=110,15=1/2;
 99//99;
 2/9=110,15=1/2;
 3/5=2,16=1,25=1,41=3900000,71=1,135=20/1,2,3;
 4/5=5,16=3,35=1/1;
 5/5=2,35=1,38=5/2;
 7/30=1/1,2,3,16;
 1/14=-1,18=20,19=15/3(-5);
 2/9=110,15=1/2;
 6/7=2,8=2,9=2,10=2,19=2,28=1/1;
 99/9=1/99;
 Leave Link    1 at Wed Feb 19 11:30:33 2020, MaxMem= 1073741824 cpu:       0.0
 (Enter /home/dgomes/software//g09/l101.exe)
 ---------------------
 remark line goes here
 ---------------------
 Symbolic Z-matrix:
 Charge =  0 Multiplicity = 1
 C
 C                    1    b2
 O                    2    b3       1    a3
 O                    1    b4       2    a4       3    t4       0
 H                    1    b5       2    a5       3    t5       0
 H                    1    b6       2    a6       3    t6       0
 H                    2    b7       1    a7       4    t7       0
 H                    2    b8       1    a8       4    t8       0
 H                    3    b9       2    a9       1    t9       0
 H                    4    b10      1    a10      2    t10      0
       Variables:
  b2                    1.5389                   
  b3                    1.4226                   
  a3                  109.9516                   
  b4                    1.4228                   
  a4                  109.9553                   
  t4                 -179.9578                   
  b5                    1.0921                   
  a5                  109.9543                   
  t5                  -60.006                    
  b6                    1.0918                   
  a6                  109.9754                   
  t6                   59.9804                   
  b7                    1.0921                   
  a7                  110.0051                   
  t7                   60.0619                   
  b8                    1.0929                   
  a8                  109.9977                   
  t8                  -59.9837                   
  b9                    0.9808                   
  a9                  104.7716                   
  t9                 -179.9787                   
  b10                   0.9799                   
  a10                 104.7483                   
  t10                 179.9643                   
 
 NAtoms=     10 NQM=     10 NQMF=      0 NMic=      0 NMicF=      0 NTot=     10.
 The following ModRedundant input section has been read:
 D    1    2    3    4 S  36 10.000                                            
                    Isotopes and Nuclear Properties:
 (Nuclear quadrupole moments (NQMom) in fm**2, nuclear magnetic moments (NMagM)
  in nuclear magnetons)

  Atom         1           2           3           4           5           6           7           8           9          10
 IAtWgt=          12          12          16          16           1           1           1           1           1           1
 AtmWgt=  12.0000000  12.0000000  15.9949146  15.9949146   1.0078250   1.0078250   1.0078250   1.0078250   1.0078250   1.0078250
 NucSpn=           0           0           0           0           1           1           1           1           1           1
 AtZEff=   0.0000000   0.0000000   0.0000000   0.0000000   0.0000000   0.0000000   0.0000000   0.0000000   0.0000000   0.0000000
 NQMom=    0.0000000   0.0000000   0.0000000   0.0000000   0.0000000   0.0000000   0.0000000   0.0000000   0.0000000   0.0000000
 NMagM=    0.0000000   0.0000000   0.0000000   0.0000000   2.7928460   2.7928460   2.7928460   2.7928460   2.7928460   2.7928460
 Leave Link  101 at Wed Feb 19 11:30:33 2020, MaxMem= 1073741824 cpu:       0.1
 (Enter /home/dgomes/software//g09/l103.exe)

 GradGradGradGradGradGradGradGradGradGradGradGradGradGradGradGradGradGrad
 Berny optimization.
 Initialization pass.
                           ----------------------------
                           !    Initial Parameters    !
                           ! (Angstroms and Degrees)  !
 --------------------------                            --------------------------
 ! Name  Definition              Value          Derivative Info.                !
 --------------------------------------------------------------------------------
 ! R1    R(1,2)                  1.5389         estimate D2E/DX2                !
 ! R2    R(1,4)                  1.4228         estimate D2E/DX2                !
 ! R3    R(1,5)                  1.0921         estimate D2E/DX2                !
 ! R4    R(1,6)                  1.0918         estimate D2E/DX2                !
 ! R5    R(2,3)                  1.4226         estimate D2E/DX2                !
 ! R6    R(2,7)                  1.0921         estimate D2E/DX2                !
 ! R7    R(2,8)                  1.0929         estimate D2E/DX2                !
 ! R8    R(3,9)                  0.9808         estimate D2E/DX2                !
 ! R9    R(4,10)                 0.9799         estimate D2E/DX2                !
 ! A1    A(2,1,4)              109.9553         estimate D2E/DX2                !
 ! A2    A(2,1,5)              109.9543         estimate D2E/DX2                !
 ! A3    A(2,1,6)              109.9754         estimate D2E/DX2                !
 ! A4    A(4,1,5)              108.9443         estimate D2E/DX2                !
 ! A5    A(4,1,6)              109.0226         estimate D2E/DX2                !
 ! A6    A(5,1,6)              108.9621         estimate D2E/DX2                !
 ! A7    A(1,2,3)              109.9516         estimate D2E/DX2                !
 ! A8    A(1,2,7)              110.0051         estimate D2E/DX2                !
 ! A9    A(1,2,8)              109.9977         estimate D2E/DX2                !
 ! A10   A(3,2,7)              108.9434         estimate D2E/DX2                !
 ! A11   A(3,2,8)              108.9422         estimate D2E/DX2                !
 ! A12   A(7,2,8)              108.9727         estimate D2E/DX2                !
 ! A13   A(2,3,9)              104.7716         estimate D2E/DX2                !
 ! A14   A(1,4,10)             104.7483         estimate D2E/DX2                !
 ! D1    D(4,1,2,3)           -179.9578         estimate D2E/DX2                !
 ! D2    D(4,1,2,7)             60.0619         estimate D2E/DX2                !
 ! D3    D(4,1,2,8)            -59.9837         estimate D2E/DX2                !
 ! D4    D(5,1,2,3)            -60.006          estimate D2E/DX2                !
 ! D5    D(5,1,2,7)           -179.9863         estimate D2E/DX2                !
 ! D6    D(5,1,2,8)             59.9681         estimate D2E/DX2                !
 ! D7    D(6,1,2,3)             59.9804         estimate D2E/DX2                !
 ! D8    D(6,1,2,7)            -59.9999         estimate D2E/DX2                !
 ! D9    D(6,1,2,8)            179.9545         estimate D2E/DX2                !
 ! D10   D(2,1,4,10)           179.9643         estimate D2E/DX2                !
 ! D11   D(5,1,4,10)            59.4011         estimate D2E/DX2                !
 ! D12   D(6,1,4,10)           -59.3977         estimate D2E/DX2                !
 ! D13   D(1,2,3,4)              0.039          Scan                            !
 ! D14   D(1,2,3,9)           -179.9787         estimate D2E/DX2                !
 ! D15   D(7,2,3,9)            -59.356          estimate D2E/DX2                !
 ! D16   D(8,2,3,9)             59.4084         estimate D2E/DX2                !
 --------------------------------------------------------------------------------
 Trust Radius=3.00D-01 FncErr=1.00D-07 GrdErr=1.00D-07
 Number of optimizations in scan=  37
 Number of steps in this run=  49 maximum allowed number of steps= 100.
 GradGradGradGradGradGradGradGradGradGradGradGradGradGradGradGradGradGrad

 Leave Link  103 at Wed Feb 19 11:30:33 2020, MaxMem= 1073741824 cpu:       0.0
 (Enter /home/dgomes/software//g09/l202.exe)
                          Input orientation:                          
 ---------------------------------------------------------------------
 Center     Atomic      Atomic             Coordinates (Angstroms)
 Number     Number       Type             X           Y           Z
 ---------------------------------------------------------------------
      1          6           0        0.000000    0.000000    0.000000
      2          6           0        0.000000    0.000000    1.538900
      3          8           0        1.337217    0.000000    2.024328
      4          8           0       -1.337374    0.000985   -0.485583
      5          1           0        0.513175    0.889060   -0.372702
      6          1           0        0.513362   -0.888468   -0.372977
      7          1           0       -0.512797   -0.888896    1.912512
      8          1           0       -0.513100    0.889645    1.912653
      9          1           0        1.248666   -0.000353    3.001123
     10          1           0       -1.248443    0.001510   -1.461439
 ---------------------------------------------------------------------
                    Distance matrix (angstroms):
                    1          2          3          4          5
     1  C    0.000000
     2  C    1.538900   0.000000
     3  O    2.426119   1.422600   0.000000
     4  O    1.422800   2.426335   3.667846   0.000000
     5  H    1.092100   2.169792   2.686117   2.055711   0.000000
     6  H    1.091800   2.169836   2.686110   2.056460   1.777527
     7  H    2.170437   1.092100   2.055527   2.687503   3.071798
     8  H    2.170940   1.092900   2.056116   2.687132   2.505212
     9  H    3.250524   1.922827   0.980800   4.341050   3.565767
    10  H    1.922087   3.249715   4.340071   0.979900   2.253085
                    6          7          8          9         10
     6  H    0.000000
     7  H    2.505287   0.000000
     8  H    3.072362   1.778541   0.000000
     9  H    3.565665   2.253294   2.254037   0.000000
    10  H    2.254056   3.566166   3.565671   5.113709   0.000000
 Symmetry turned off by external request.
 Stoichiometry    C2H6O2
 Framework group  C1[X(C2H6O2)]
 Deg. of freedom    24
 Full point group                 C1      NOp   1
 Rotational constants (GHZ):     31.2844656      3.8425873      3.5765746
 Leave Link  202 at Wed Feb 19 11:30:33 2020, MaxMem= 1073741824 cpu:       0.0
 (Enter /home/dgomes/software//g09/l301.exe)
 Standard basis: VSTO-6G (5D, 7F)
 Ernie: Thresh=  0.10000D-02 Tol=  0.10000D-05 Strict=F.
  NNHCO=     0 NNPyr=     0 NCTC=     0               EPep=         0.000000000
    EC=        63.085988714  ECS=         1.836740664   EG=         0.119910500
   EHC=         0.000736811  EAt=       -32.050532544  AtH=         1.232666658
 EPDDG=         0.000000000  ECC=        65.043376688 EAtT=        33.283199203
 Integral buffers will be    131072 words long.
 Regular integral format.
 Two-electron integral symmetry is turned off.
    22 basis functions,   132 primitive gaussians,    22 cartesian basis functions
    13 alpha electrons       13 beta electrons
       nuclear repulsion energy        98.3265758910 Hartrees.
 IExCor=    0 DFT=F Ex=HF Corr=None ExCW=0 ScaHFX=  1.000000
 ScaDFX=  1.000000  1.000000  1.000000  1.000000 ScalE2=  1.000000  1.000000
 IRadAn=      0 IRanWt=     -1 IRanGd=            0 ICorTp=0
 Leave Link  301 at Wed Feb 19 11:30:33 2020, MaxMem= 1073741824 cpu:       0.0
 (Enter /home/dgomes/software//g09/l302.exe)
 Do NDO integrals.
 NPDir=0 NMtPBC=     1 NCelOv=     1 NCel=       1 NClECP=     1 NCelD=      1
         NCelK=      1 NCelE2=     1 NClLst=     1 CellRange=     0.0.
 One-electron integrals computed using PRISM.
 NBasis=    22 RedAO= F  NBF=    22
 NBsUse=    22 1.00D-04 NBFU=    22
 Leave Link  302 at Wed Feb 19 11:30:34 2020, MaxMem= 1073741824 cpu:       0.1
 (Enter /home/dgomes/software//g09/l303.exe)
 DipDrv:  MaxL=1.
 Leave Link  303 at Wed Feb 19 11:30:34 2020, MaxMem= 1073741824 cpu:       0.0
 (Enter /home/dgomes/software//g09/l401.exe)
 Simple Huckel Guess.
 Leave Link  401 at Wed Feb 19 11:30:34 2020, MaxMem= 1073741824 cpu:       0.0
 (Enter /home/dgomes/software//g09/l502.exe)
 Closed shell SCF:
 Requested convergence on RMS density matrix=1.00D-08 within 128 cycles.
 Requested convergence on MAX density matrix=1.00D-06.
 Requested convergence on             energy=1.00D-06.
 No special actions if energy rises.
 Using DIIS extrapolation, IDIIS=  1040.
 Overlap will be assumed to be unity.
 Two-electron integral symmetry not used.
 Keep J ints in memory in canonical form, NReq=879868.
 IEnd=       78773 IEndB=       78773 NGot=  1073741824 MDV=  1073679089
 LenX=  1073679089 LenY=  1073678164
 Symmetry not used in FoFDir.
 MinBra= 0 MaxBra= 1 Meth=40.
 IRaf=       0 NMat=   1 IRICut=       1 DoRegI=T DoRafI=F ISym2E= 0 JSym2E=0.

 Cycle   1  Pass 1  IDiag  1:
 E= 0.695721143059984E-01
 DIIS: error= 5.30D-02 at cycle   1 NSaved=   1.
 NSaved= 1 IEnMin= 1 EnMin= 0.695721143059984E-01 IErMin= 1 ErrMin= 5.30D-02
 ErrMax= 5.30D-02 EMaxC= 1.00D-01 BMatC= 5.91D-02 BMatP= 5.91D-02
 IDIUse=3 WtCom= 4.70D-01 WtEn= 5.30D-01
 Coeff-Com:  0.100D+01
 Coeff-En:   0.100D+01
 Coeff:      0.100D+01
 GapD=    2.000 DampG=2.000 DampE=0.500 DampFc=1.0000 IDamp=-1.
 RMSDP=1.68D-02 MaxDP=1.22D-01              OVMax= 0.00D+00

 Cycle   2  Pass 1  IDiag  1:
 E=-0.100557254475746     Delta-E=       -0.170129368782 Rises=F Damp=F
 DIIS: error= 1.58D-02 at cycle   2 NSaved=   2.
 NSaved= 2 IEnMin= 2 EnMin=-0.100557254475746     IErMin= 2 ErrMin= 1.58D-02
 ErrMax= 1.58D-02 EMaxC= 1.00D-01 BMatC= 7.99D-03 BMatP= 5.91D-02
 IDIUse=3 WtCom= 8.42D-01 WtEn= 1.58D-01
 Coeff-Com: -0.405D+00 0.140D+01
 Coeff-En:   0.000D+00 0.100D+01
 Coeff:     -0.341D+00 0.134D+01
 RMSDP=9.84D-03 MaxDP=5.35D-02 DE=-1.70D-01 OVMax= 0.00D+00

 Cycle   3  Pass 1  IDiag  3:
 E=-0.135719685583823     Delta-E=       -0.035162431108 Rises=F Damp=F
 DIIS: error= 5.16D-03 at cycle   3 NSaved=   3.
 NSaved= 3 IEnMin= 3 EnMin=-0.135719685583823     IErMin= 3 ErrMin= 5.16D-03
 ErrMax= 5.16D-03 EMaxC= 1.00D-01 BMatC= 9.23D-04 BMatP= 7.99D-03
 IDIUse=3 WtCom= 9.48D-01 WtEn= 5.16D-02
 Coeff-Com:  0.259D+00-0.113D+01 0.187D+01
 Coeff-En:   0.000D+00 0.000D+00 0.100D+01
 Coeff:      0.246D+00-0.107D+01 0.182D+01
 Gap=     0.459 Goal=   None    Shift=    0.000
 RMSDP=5.70D-03 MaxDP=3.68D-02 DE=-3.52D-02 OVMax= 0.00D+00

 Cycle   4  Pass 1  IDiag  3:
 E=-0.141814105654106     Delta-E=       -0.006094420070 Rises=F Damp=F
 DIIS: error= 8.81D-04 at cycle   4 NSaved=   4.
 NSaved= 4 IEnMin= 4 EnMin=-0.141814105654106     IErMin= 4 ErrMin= 8.81D-04
 ErrMax= 8.81D-04 EMaxC= 1.00D-01 BMatC= 2.69D-05 BMatP= 9.23D-04
 IDIUse=3 WtCom= 9.91D-01 WtEn= 8.81D-03
 Coeff-Com: -0.673D-01 0.330D+00-0.711D+00 0.145D+01
 Coeff-En:   0.000D+00 0.000D+00 0.000D+00 0.100D+01
 Coeff:     -0.667D-01 0.327D+00-0.705D+00 0.145D+01
 Gap=     0.460 Goal=   None    Shift=    0.000
 RMSDP=1.02D-03 MaxDP=6.52D-03 DE=-6.09D-03 OVMax= 0.00D+00

 Cycle   5  Pass 1  IDiag  3:
 E=-0.141982396578470     Delta-E=       -0.000168290924 Rises=F Damp=F
 DIIS: error= 1.14D-04 at cycle   5 NSaved=   5.
 NSaved= 5 IEnMin= 5 EnMin=-0.141982396578470     IErMin= 5 ErrMin= 1.14D-04
 ErrMax= 1.14D-04 EMaxC= 1.00D-01 BMatC= 7.04D-07 BMatP= 2.69D-05
 IDIUse=3 WtCom= 9.99D-01 WtEn= 1.14D-03
 Coeff-Com:  0.186D-01-0.941D-01 0.228D+00-0.594D+00 0.144D+01
 Coeff-En:   0.000D+00 0.000D+00 0.000D+00 0.000D+00 0.100D+01
 Coeff:      0.186D-01-0.940D-01 0.228D+00-0.593D+00 0.144D+01
 Gap=     0.460 Goal=   None    Shift=    0.000
 RMSDP=1.16D-04 MaxDP=6.32D-04 DE=-1.68D-04 OVMax= 0.00D+00

 Cycle   6  Pass 1  IDiag  3:
 E=-0.141985718881259     Delta-E=       -0.000003322303 Rises=F Damp=F
 DIIS: error= 2.61D-05 at cycle   6 NSaved=   6.
 NSaved= 6 IEnMin= 6 EnMin=-0.141985718881259     IErMin= 6 ErrMin= 2.61D-05
 ErrMax= 2.61D-05 EMaxC= 1.00D-01 BMatC= 3.08D-08 BMatP= 7.04D-07
 IDIUse=1 WtCom= 1.00D+00 WtEn= 0.00D+00
 Coeff-Com: -0.229D-02 0.138D-01-0.435D-01 0.143D+00-0.493D+00 0.138D+01
 Coeff:     -0.229D-02 0.138D-01-0.435D-01 0.143D+00-0.493D+00 0.138D+01
 Gap=     0.460 Goal=   None    Shift=    0.000
 RMSDP=2.59D-05 MaxDP=1.51D-04 DE=-3.32D-06 OVMax= 0.00D+00

 Cycle   7  Pass 1  IDiag  3:
 E=-0.141985869722547     Delta-E=       -0.000000150841 Rises=F Damp=F
 DIIS: error= 6.45D-06 at cycle   7 NSaved=   7.
 NSaved= 7 IEnMin= 7 EnMin=-0.141985869722547     IErMin= 7 ErrMin= 6.45D-06
 ErrMax= 6.45D-06 EMaxC= 1.00D-01 BMatC= 1.37D-09 BMatP= 3.08D-08
 IDIUse=1 WtCom= 1.00D+00 WtEn= 0.00D+00
 Coeff-Com:  0.458D-03-0.343D-02 0.134D-01-0.491D-01 0.175D+00-0.620D+00
 Coeff-Com:  0.148D+01
 Coeff:      0.458D-03-0.343D-02 0.134D-01-0.491D-01 0.175D+00-0.620D+00
 Coeff:      0.148D+01
 Gap=     0.460 Goal=   None    Shift=    0.000
 RMSDP=5.87D-06 MaxDP=4.12D-05 DE=-1.51D-07 OVMax= 0.00D+00

 Cycle   8  Pass 1  IDiag  3:
 E=-0.141985877123730     Delta-E=       -0.000000007401 Rises=F Damp=F
 DIIS: error= 8.63D-07 at cycle   8 NSaved=   8.
 NSaved= 8 IEnMin= 8 EnMin=-0.141985877123730     IErMin= 8 ErrMin= 8.63D-07
 ErrMax= 8.63D-07 EMaxC= 1.00D-01 BMatC= 4.93D-11 BMatP= 1.37D-09
 IDIUse=1 WtCom= 1.00D+00 WtEn= 0.00D+00
 Coeff-Com: -0.120D-03 0.101D-02-0.432D-02 0.162D-01-0.565D-01 0.207D+00
 Coeff-Com: -0.626D+00 0.146D+01
 Coeff:     -0.120D-03 0.101D-02-0.432D-02 0.162D-01-0.565D-01 0.207D+00
 Coeff:     -0.626D+00 0.146D+01
 Gap=     0.460 Goal=   None    Shift=    0.000
 RMSDP=1.14D-06 MaxDP=6.74D-06 DE=-7.40D-09 OVMax= 0.00D+00

 Cycle   9  Pass 1  IDiag  3:
 E=-0.141985877385494     Delta-E=       -0.000000000262 Rises=F Damp=F
 DIIS: error= 1.50D-07 at cycle   9 NSaved=   9.
 NSaved= 9 IEnMin= 9 EnMin=-0.141985877385494     IErMin= 9 ErrMin= 1.50D-07
 ErrMax= 1.50D-07 EMaxC= 1.00D-01 BMatC= 1.33D-12 BMatP= 4.93D-11
 IDIUse=1 WtCom= 1.00D+00 WtEn= 0.00D+00
 Coeff-Com:  0.441D-04-0.375D-03 0.161D-02-0.597D-02 0.205D-01-0.763D-01
 Coeff-Com:  0.239D+00-0.626D+00 0.145D+01
 Coeff:      0.441D-04-0.375D-03 0.161D-02-0.597D-02 0.205D-01-0.763D-01
 Coeff:      0.239D+00-0.626D+00 0.145D+01
 Gap=     0.460 Goal=   None    Shift=    0.000
 RMSDP=1.77D-07 MaxDP=8.19D-07 DE=-2.62D-10 OVMax= 0.00D+00

 Cycle  10  Pass 1  IDiag  3:
 E=-0.141985877392500     Delta-E=       -0.000000000007 Rises=F Damp=F
 DIIS: error= 3.96D-08 at cycle  10 NSaved=  10.
 NSaved=10 IEnMin=10 EnMin=-0.141985877392500     IErMin=10 ErrMin= 3.96D-08
 ErrMax= 3.96D-08 EMaxC= 1.00D-01 BMatC= 5.62D-14 BMatP= 1.33D-12
 IDIUse=1 WtCom= 1.00D+00 WtEn= 0.00D+00
 Coeff-Com: -0.777D-05 0.661D-04-0.276D-03 0.991D-03-0.327D-02 0.124D-01
 Coeff-Com: -0.415D-01 0.117D+00-0.435D+00 0.135D+01
 Coeff:     -0.777D-05 0.661D-04-0.276D-03 0.991D-03-0.327D-02 0.124D-01
 Coeff:     -0.415D-01 0.117D+00-0.435D+00 0.135D+01
 Gap=     0.460 Goal=   None    Shift=    0.000
 RMSDP=3.91D-08 MaxDP=2.14D-07 DE=-7.01D-12 OVMax= 0.00D+00

 Cycle  11  Pass 1  IDiag  3:
 E=-0.141985877392983     Delta-E=        0.000000000000 Rises=F Damp=F
 DIIS: error= 6.97D-09 at cycle  11 NSaved=  11.
 NSaved=11 IEnMin=11 EnMin=-0.141985877392983     IErMin=11 ErrMin= 6.97D-09
 ErrMax= 6.97D-09 EMaxC= 1.00D-01 BMatC= 1.81D-15 BMatP= 5.62D-14
 IDIUse=1 WtCom= 1.00D+00 WtEn= 0.00D+00
 Coeff-Com:  0.252D-06-0.245D-05 0.829D-05-0.176D-04 0.282D-05-0.129D-03
 Coeff-Com:  0.155D-02-0.665D-02 0.693D-01-0.404D+00 0.134D+01
 Coeff:      0.252D-06-0.245D-05 0.829D-05-0.176D-04 0.282D-05-0.129D-03
 Coeff:      0.155D-02-0.665D-02 0.693D-01-0.404D+00 0.134D+01
 Gap=     0.460 Goal=   None    Shift=    0.000
 RMSDP=6.35D-09 MaxDP=3.45D-08 DE=-4.83D-13 OVMax= 0.00D+00

 Cycle  12  Pass 2  IDiag  1:
 RMSDP=6.35D-09 MaxDP=3.45D-08 DE=-4.83D-13 OVMax= 0.00D+00

 SCF Done:  E(RPM6) = -0.141985877393     A.U. after   12 cycles
             Convg  =    0.6347D-08             -V/T =  0.9975
 KE=-5.680286893140D+01 PE=-1.225877173944D+02 EE= 8.092202455745D+01
 Leave Link  502 at Wed Feb 19 11:30:34 2020, MaxMem= 1073741824 cpu:       0.0
 (Enter /home/dgomes/software//g09/l601.exe)
 Copying SCF densities to generalized density rwf, IOpCl= 0 IROHF=0.

 **********************************************************************

            Population analysis using the SCF density.

 **********************************************************************

 Alpha  occ. eigenvalues --   -1.12423  -1.10960  -0.96716  -0.80399  -0.69582
 Alpha  occ. eigenvalues --   -0.64076  -0.62258  -0.54942  -0.52367  -0.50388
 Alpha  occ. eigenvalues --   -0.44839  -0.39710  -0.38666
 Alpha virt. eigenvalues --    0.07281   0.11532   0.11757   0.18188   0.18809
 Alpha virt. eigenvalues --    0.19687   0.20007   0.20030   0.20780
          Condensed to atoms (all electrons):
              1          2          3          4          5          6
     1  C    4.033378   0.000000   0.000000   0.000000   0.000000   0.000000
     2  C    0.000000   4.033441   0.000000   0.000000   0.000000   0.000000
     3  O    0.000000   0.000000   6.531995   0.000000   0.000000   0.000000
     4  O    0.000000   0.000000   0.000000   6.531799   0.000000   0.000000
     5  H    0.000000   0.000000   0.000000   0.000000   0.873053   0.000000
     6  H    0.000000   0.000000   0.000000   0.000000   0.000000   0.873037
     7  H    0.000000   0.000000   0.000000   0.000000   0.000000   0.000000
     8  H    0.000000   0.000000   0.000000   0.000000   0.000000   0.000000
     9  H    0.000000   0.000000   0.000000   0.000000   0.000000   0.000000
    10  H    0.000000   0.000000   0.000000   0.000000   0.000000   0.000000
              7          8          9         10
     1  C    0.000000   0.000000   0.000000   0.000000
     2  C    0.000000   0.000000   0.000000   0.000000
     3  O    0.000000   0.000000   0.000000   0.000000
     4  O    0.000000   0.000000   0.000000   0.000000
     5  H    0.000000   0.000000   0.000000   0.000000
     6  H    0.000000   0.000000   0.000000   0.000000
     7  H    0.873095   0.000000   0.000000   0.000000
     8  H    0.000000   0.872978   0.000000   0.000000
     9  H    0.000000   0.000000   0.688523   0.000000
    10  H    0.000000   0.000000   0.000000   0.688701
 Mulliken atomic charges:
              1
     1  C   -0.033378
     2  C   -0.033441
     3  O   -0.531995
     4  O   -0.531799
     5  H    0.126947
     6  H    0.126963
     7  H    0.126905
     8  H    0.127022
     9  H    0.311477
    10  H    0.311299
 Sum of Mulliken atomic charges =   0.00000
 Mulliken charges with hydrogens summed into heavy atoms:
              1
     1  C    0.220531
     2  C    0.220487
     3  O   -0.220518
     4  O   -0.220500
 Sum of Mulliken charges with hydrogens summed into heavy atoms =   0.00000
 Charge=              0.0000 electrons
 Dipole moment (field-independent basis, Debye):
    X=              0.0013    Y=              0.0003    Z=              0.0029  Tot=              0.0032
 N-N= 9.832657589101D+01 E-N=-1.225877174537D+02  KE=-5.680286893140D+01
 Leave Link  601 at Wed Feb 19 11:30:34 2020, MaxMem= 1073741824 cpu:       0.0
 (Enter /home/dgomes/software//g09/l701.exe)
 Compute integral first derivatives.
 ... and contract with generalized density number  0.
 Leave Link  701 at Wed Feb 19 11:30:34 2020, MaxMem= 1073741824 cpu:       0.0
 (Enter /home/dgomes/software//g09/l702.exe)
 L702 exits ... SP integral derivatives will be done elsewhere.
 Leave Link  702 at Wed Feb 19 11:30:34 2020, MaxMem= 1073741824 cpu:       0.0
 (Enter /home/dgomes/software//g09/l703.exe)
 Compute integral first derivatives, UseDBF=F ICtDFT=           0.
 Integral derivatives from FoFDir, PRISM(SPDF).
 Calling FoFJK, ICntrl=      2127 FMM=F ISym2X=0 I1Cent= 0 IOpClX= 0 NMat=1 NMatS=1 NMatT=0.
 FoFCou: FMM=F IPFlag=           0 FMFlag=      100000 FMFlg1=         800
         NFxFlg=           0 DoJE=F BraDBF=F KetDBF=F FulRan=T
         Omega=  0.000000  0.000000  1.000000  0.000000  0.000000 ICntrl=    2127 IOpCl=  0
         NMat0=    1 NMatS0=    1 NMatT0=    0 NMatD0=    1 NMtDS0=    0 NMtDT0=    0
         I1Cent=           0 NGrid=           0.
 Symmetry not used in FoFCou.
 Leave Link  703 at Wed Feb 19 11:30:34 2020, MaxMem= 1073741824 cpu:       0.0
 (Enter /home/dgomes/software//g09/l716.exe)
 Dipole        = 5.13502364D-04 1.18160343D-04 1.13156878D-03
 -------------------------------------------------------------------
 Center     Atomic                   Forces (Hartrees/Bohr)
 Number     Number              X              Y              Z
 -------------------------------------------------------------------
      1        6           0.024301394    0.000196569    0.013321944
      2        6          -0.024578285    0.000254635   -0.012951956
      3        8           0.007661701    0.000015315   -0.001596212
      4        8          -0.007456868   -0.000060971    0.001981080
      5        1           0.004605976    0.007177885   -0.002707276
      6        1           0.004557242   -0.007286224   -0.002763583
      7        1          -0.004620295   -0.007133984    0.002643514
      8        1          -0.004424461    0.006836390    0.002506144
      9        1           0.008772861   -0.000000829    0.003804914
     10        1          -0.008819264    0.000001215   -0.004238569
 -------------------------------------------------------------------
 Cartesian Forces:  Max     0.024578285 RMS     0.008487898
 Leave Link  716 at Wed Feb 19 11:30:34 2020, MaxMem= 1073741824 cpu:       0.0
 (Enter /home/dgomes/software//g09/l103.exe)

 GradGradGradGradGradGradGradGradGradGradGradGradGradGradGradGradGradGrad
 Berny optimization.
 Internal  Forces:  Max     0.018394461 RMS     0.007853577
 Search for a local minimum.
 Step number   1 out of a maximum of   49 on scan point     1 out of    37
 All quantities printed in internal units (Hartrees-Bohrs-Radians)
 RMS Force = .79562D-02 SwitMx=.10000D-02 MixMth= 1
 Mixed Optimization -- RFO/linear search
 Second derivative matrix not updated -- first step.
     Eigenvalues ---    0.01390   0.01393   0.01722   0.05075   0.05737
     Eigenvalues ---    0.05744   0.11390   0.11396   0.13456   0.13767
     Eigenvalues ---    0.16000   0.16000   0.22052   0.22053   0.28617
     Eigenvalues ---    0.34480   0.34571   0.34571   0.34605   0.42041
     Eigenvalues ---    0.42071   0.51230   0.514041000.000001000.00000
     Eigenvalues --- 1000.000001000.000001000.000001000.000001000.00000
     Eigenvalues --- 1000.000001000.000001000.000001000.000001000.00000
     Eigenvalues --- 1000.000001000.000001000.000001000.00000
 RFO step:  Lambda=-9.96038799D-03 EMin= 1.39018002D-02
 Linear search not attempted -- first point.
 Iteration  1 RMS(Cart)=  0.06263894 RMS(Int)=  0.00304136
 Iteration  2 RMS(Cart)=  0.00385715 RMS(Int)=  0.00021228
 Iteration  3 RMS(Cart)=  0.00000245 RMS(Int)=  0.00021227
 Iteration  4 RMS(Cart)=  0.00000000 RMS(Int)=  0.00021227
 Iteration  1 RMS(Cart)=  0.00000015 RMS(Int)=  0.00000021
 Variable       Old X    -DE/DX   Delta X   Delta X   Delta X     New X
                                 (Linear)    (Quad)   (Total)
    R1        2.90810  -0.00559   0.00000  -0.01889  -0.01889   2.88921
    R2        2.68870   0.01607   0.00000   0.03734   0.03734   2.72604
    R3        2.06377   0.00893   0.00000   0.02511   0.02511   2.08888
    R4        2.06320   0.00902   0.00000   0.02533   0.02533   2.08853
    R5        2.68832   0.01620   0.00000   0.03762   0.03762   2.72594
    R6        2.06377   0.00888   0.00000   0.02497   0.02497   2.08874
    R7        2.06528   0.00850   0.00000   0.02396   0.02396   2.08924
    R8        1.85344   0.00300   0.00000   0.00574   0.00574   1.85918
    R9        1.85174   0.00342   0.00000   0.00653   0.00653   1.85827
    A1        1.91908  -0.01838   0.00000  -0.08495  -0.08507   1.83401
    A2        1.91906   0.00392   0.00000   0.01531   0.01517   1.93423
    A3        1.91943   0.00395   0.00000   0.01511   0.01492   1.93435
    A4        1.90144   0.00622   0.00000   0.02276   0.02245   1.92388
    A5        1.90280   0.00614   0.00000   0.02168   0.02133   1.92414
    A6        1.90175  -0.00166   0.00000   0.01108   0.01048   1.91223
    A7        1.91902  -0.01839   0.00000  -0.08491  -0.08504   1.83398
    A8        1.91995   0.00387   0.00000   0.01472   0.01459   1.93454
    A9        1.91982   0.00386   0.00000   0.01448   0.01433   1.93415
   A10        1.90142   0.00627   0.00000   0.02313   0.02278   1.92420
   A11        1.90140   0.00625   0.00000   0.02275   0.02239   1.92379
   A12        1.90193  -0.00166   0.00000   0.01084   0.01025   1.91218
   A13        1.82861   0.01683   0.00000   0.09902   0.09902   1.92763
   A14        1.82820   0.01698   0.00000   0.09988   0.09988   1.92808
    D1       -3.14086  -0.00002   0.00000  -0.00002  -0.00001  -3.14087
    D2        1.04828   0.00138   0.00000   0.01560   0.01562   1.06390
    D3       -1.04691  -0.00145   0.00000  -0.01624  -0.01624  -1.06315
    D4       -1.04730  -0.00142   0.00000  -0.01565  -0.01567  -1.06298
    D5       -3.14135  -0.00002   0.00000  -0.00003  -0.00004  -3.14139
    D6        1.04664  -0.00285   0.00000  -0.03187  -0.03190   1.01475
    D7        1.04686   0.00148   0.00000   0.01719   0.01720   1.06406
    D8       -1.04720   0.00288   0.00000   0.03281   0.03283  -1.01436
    D9        3.14080   0.00005   0.00000   0.00097   0.00098  -3.14141
   D10        3.14097   0.00002   0.00000   0.00051   0.00049   3.14146
   D11        1.03675   0.00259   0.00000   0.01958   0.01990   1.05665
   D12       -1.03668  -0.00260   0.00000  -0.01965  -0.01995  -1.05664
   D13        0.00068  -0.00002   0.00000   0.00000   0.00000   0.00068
   D14       -3.14122  -0.00001   0.00000  -0.00016  -0.00015  -3.14137
   D15       -1.03596  -0.00263   0.00000  -0.01974  -0.02009  -1.05604
   D16        1.03687   0.00264   0.00000   0.01994   0.02029   1.05716
         Item               Value     Threshold  Converged?
 Maximum Force            0.018394     0.000450     NO 
 RMS     Force            0.007956     0.000300     NO 
 Maximum Displacement     0.167226     0.001800     NO 
 RMS     Displacement     0.063841     0.001200     NO 
 Predicted change in Energy=-5.220258D-03
 GradGradGradGradGradGradGradGradGradGradGradGradGradGradGradGradGradGrad

 Leave Link  103 at Wed Feb 19 11:30:34 2020, MaxMem= 1073741824 cpu:       0.0
 (Enter /home/dgomes/software//g09/l202.exe)
                          Input orientation:                          
 ---------------------------------------------------------------------
 Center     Atomic      Atomic             Coordinates (Angstroms)
 Number     Number       Type             X           Y           Z
 ---------------------------------------------------------------------
      1          6           0        0.052343    0.000264    0.006955
      2          6           0       -0.052084   -0.000038    1.532289
      3          8           0        1.311869    0.000209    2.001823
      4          8           0       -1.311644    0.001023   -0.462633
      5          1           0        0.580201    0.903262   -0.350598
      6          1           0        0.579563   -0.902695   -0.351062
      7          1           0       -0.579689   -0.902967    1.890155
      8          1           0       -0.579674    0.903205    1.890204
      9          1           0        1.336756   -0.000164    2.985345
     10          1           0       -1.336935    0.001384   -1.445662
 ---------------------------------------------------------------------
                    Distance matrix (angstroms):
                    1          2          3          4          5
     1  C    0.000000
     2  C    1.528904   0.000000
     3  O    2.359216   1.442508   0.000000
     4  O    1.442558   2.359281   3.599495   0.000000
     5  H    1.105389   2.181971   2.623876   2.098968   0.000000
     6  H    1.105202   2.181920   2.624418   2.099004   1.805957
     7  H    2.182139   1.105313   2.099092   2.624608   3.103028
     8  H    2.182057   1.105578   2.098998   2.624034   2.523193
     9  H    3.243536   2.010037   0.983837   4.347709   3.537947
    10  H    2.010023   3.243306   4.347564   0.983354   2.384944
                    6          7          8          9         10
     6  H    0.000000
     7  H    2.523275   0.000000
     8  H    3.102962   1.806172   0.000000
     9  H    3.538292   2.384797   2.384977   0.000000
    10  H    2.385052   3.538212   3.537616   5.175176   0.000000
 Symmetry turned off by external request.
 Stoichiometry    C2H6O2
 Framework group  C1[X(C2H6O2)]
 Deg. of freedom    24
 Full point group                 C1      NOp   1
 Rotational constants (GHZ):     29.2709174      3.9835966      3.6739933
 Leave Link  202 at Wed Feb 19 11:30:34 2020, MaxMem= 1073741824 cpu:       0.0
 (Enter /home/dgomes/software//g09/l301.exe)
 Standard basis: VSTO-6G (5D, 7F)
 Ernie: Thresh=  0.10000D-02 Tol=  0.10000D-05 Strict=F.
  NNHCO=     0 NNPyr=     0 NCTC=     0               EPep=         0.000000000
    EC=        63.120230112  ECS=         1.777049727   EG=         0.115904884
   EHC=         0.000685742  EAt=       -32.050532544  AtH=         1.232666658
 EPDDG=         0.000000000  ECC=        65.013870465 EAtT=        33.283199203
 Integral buffers will be    131072 words long.
 Regular integral format.
 Two-electron integral symmetry is turned off.
    22 basis functions,   132 primitive gaussians,    22 cartesian basis functions
    13 alpha electrons       13 beta electrons
       nuclear repulsion energy        98.2970696681 Hartrees.
 IExCor=    0 DFT=F Ex=HF Corr=None ExCW=0 ScaHFX=  1.000000
 ScaDFX=  1.000000  1.000000  1.000000  1.000000 ScalE2=  1.000000  1.000000
 IRadAn=      0 IRanWt=     -1 IRanGd=            0 ICorTp=0
 Leave Link  301 at Wed Feb 19 11:30:34 2020, MaxMem= 1073741824 cpu:       0.0
 (Enter /home/dgomes/software//g09/l302.exe)
 Do NDO integrals.
 NPDir=0 NMtPBC=     1 NCelOv=     1 NCel=       1 NClECP=     1 NCelD=      1
         NCelK=      1 NCelE2=     1 NClLst=     1 CellRange=     0.0.
 One-electron integrals computed using PRISM.
 NBasis=    22 RedAO= F  NBF=    22
 NBsUse=    22 1.00D-04 NBFU=    22
 Leave Link  302 at Wed Feb 19 11:30:34 2020, MaxMem= 1073741824 cpu:       0.1
 (Enter /home/dgomes/software//g09/l303.exe)
 DipDrv:  MaxL=1.
 Leave Link  303 at Wed Feb 19 11:30:34 2020, MaxMem= 1073741824 cpu:       0.0
 (Enter /home/dgomes/software//g09/l401.exe)
 Initial guess read from the read-write file.
 B after Tr=     0.000000    0.000000    0.000000
         Rot=    1.000000    0.000000    0.000000    0.000000 Ang=   0.00 deg.
 Guess basis will be translated and rotated to current coordinates.
 Leave Link  401 at Wed Feb 19 11:30:34 2020, MaxMem= 1073741824 cpu:       0.1
 (Enter /home/dgomes/software//g09/l502.exe)
 Closed shell SCF:
 Requested convergence on RMS density matrix=1.00D-08 within 128 cycles.
 Requested convergence on MAX density matrix=1.00D-06.
 Requested convergence on             energy=1.00D-06.
 No special actions if energy rises.
 Using DIIS extrapolation, IDIIS=  1040.
 Overlap will be assumed to be unity.
 Two-electron integral symmetry not used.
 Keep J ints in memory in canonical form, NReq=879868.
 IEnd=       78773 IEndB=       78773 NGot=  1073741824 MDV=  1073679089
 LenX=  1073679089 LenY=  1073678164
 Symmetry not used in FoFDir.
 MinBra= 0 MaxBra= 1 Meth=40.
 IRaf=       0 NMat=   1 IRICut=       1 DoRegI=T DoRafI=F ISym2E= 0 JSym2E=0.

 Cycle   1  Pass 1  IDiag  1:
 E=-0.140437808350768    
 DIIS: error= 7.02D-03 at cycle   1 NSaved=   1.
 NSaved= 1 IEnMin= 1 EnMin=-0.140437808350768     IErMin= 1 ErrMin= 7.02D-03
 ErrMax= 7.02D-03 EMaxC= 1.00D-01 BMatC= 1.58D-03 BMatP= 1.58D-03
 IDIUse=3 WtCom= 9.30D-01 WtEn= 7.02D-02
 Coeff-Com:  0.100D+01
 Coeff-En:   0.100D+01
 Coeff:      0.100D+01
 GapD=    2.000 DampG=2.000 DampE=1.000 DampFc=2.0000 IDamp=-1.
 RMSDP=3.24D-03 MaxDP=2.20D-02              OVMax= 0.00D+00

 Cycle   2  Pass 1  IDiag  3:
 E=-0.145835949789074     Delta-E=       -0.005398141438 Rises=F Damp=F
 DIIS: error= 2.83D-03 at cycle   2 NSaved=   2.
 NSaved= 2 IEnMin= 2 EnMin=-0.145835949789074     IErMin= 2 ErrMin= 2.83D-03
 ErrMax= 2.83D-03 EMaxC= 1.00D-01 BMatC= 2.23D-04 BMatP= 1.58D-03
 IDIUse=3 WtCom= 9.72D-01 WtEn= 2.83D-02
 Coeff-Com: -0.542D+00 0.154D+01
 Coeff-En:   0.000D+00 0.100D+01
 Coeff:     -0.526D+00 0.153D+01
 Gap=     0.456 Goal=   None    Shift=    0.000
 RMSDP=1.98D-03 MaxDP=1.37D-02 DE=-5.40D-03 OVMax= 0.00D+00

 Cycle   3  Pass 1  IDiag  3:
 E=-0.146835620517507     Delta-E=       -0.000999670728 Rises=F Damp=F
 DIIS: error= 3.12D-04 at cycle   3 NSaved=   3.
 NSaved= 3 IEnMin= 3 EnMin=-0.146835620517507     IErMin= 3 ErrMin= 3.12D-04
 ErrMax= 3.12D-04 EMaxC= 1.00D-01 BMatC= 4.19D-06 BMatP= 2.23D-04
 IDIUse=3 WtCom= 9.97D-01 WtEn= 3.12D-03
 Coeff-Com:  0.199D+00-0.639D+00 0.144D+01
 Coeff-En:   0.000D+00 0.000D+00 0.100D+01
 Coeff:      0.198D+00-0.637D+00 0.144D+01
 Gap=     0.456 Goal=   None    Shift=    0.000
 RMSDP=3.13D-04 MaxDP=1.68D-03 DE=-1.00D-03 OVMax= 0.00D+00

 Cycle   4  Pass 1  IDiag  3:
 E=-0.146856896146090     Delta-E=       -0.000021275629 Rises=F Damp=F
 DIIS: error= 4.95D-05 at cycle   4 NSaved=   4.
 NSaved= 4 IEnMin= 4 EnMin=-0.146856896146090     IErMin= 4 ErrMin= 4.95D-05
 ErrMax= 4.95D-05 EMaxC= 1.00D-01 BMatC= 1.09D-07 BMatP= 4.19D-06
 IDIUse=1 WtCom= 1.00D+00 WtEn= 0.00D+00
 Coeff-Com: -0.897D-01 0.292D+00-0.727D+00 0.152D+01
 Coeff:     -0.897D-01 0.292D+00-0.727D+00 0.152D+01
 Gap=     0.456 Goal=   None    Shift=    0.000
 RMSDP=5.19D-05 MaxDP=1.97D-04 DE=-2.13D-05 OVMax= 0.00D+00

 Cycle   5  Pass 1  IDiag  3:
 E=-0.146857475499601     Delta-E=       -0.000000579354 Rises=F Damp=F
 DIIS: error= 7.98D-06 at cycle   5 NSaved=   5.
 NSaved= 5 IEnMin= 5 EnMin=-0.146857475499601     IErMin= 5 ErrMin= 7.98D-06
 ErrMax= 7.98D-06 EMaxC= 1.00D-01 BMatC= 3.94D-09 BMatP= 1.09D-07
 IDIUse=1 WtCom= 1.00D+00 WtEn= 0.00D+00
 Coeff-Com:  0.339D-01-0.110D+00 0.281D+00-0.685D+00 0.148D+01
 Coeff:      0.339D-01-0.110D+00 0.281D+00-0.685D+00 0.148D+01
 Gap=     0.456 Goal=   None    Shift=    0.000
 RMSDP=9.69D-06 MaxDP=4.55D-05 DE=-5.79D-07 OVMax= 0.00D+00

 Cycle   6  Pass 1  IDiag  3:
 E=-0.146857496744005     Delta-E=       -0.000000021244 Rises=F Damp=F
 DIIS: error= 2.26D-06 at cycle   6 NSaved=   6.
 NSaved= 6 IEnMin= 6 EnMin=-0.146857496744005     IErMin= 6 ErrMin= 2.26D-06
 ErrMax= 2.26D-06 EMaxC= 1.00D-01 BMatC= 1.96D-10 BMatP= 3.94D-09
 IDIUse=1 WtCom= 1.00D+00 WtEn= 0.00D+00
 Coeff-Com: -0.808D-02 0.265D-01-0.698D-01 0.192D+00-0.592D+00 0.145D+01
 Coeff:     -0.808D-02 0.265D-01-0.698D-01 0.192D+00-0.592D+00 0.145D+01
 Gap=     0.456 Goal=   None    Shift=    0.000
 RMSDP=2.35D-06 MaxDP=1.40D-05 DE=-2.12D-08 OVMax= 0.00D+00

 Cycle   7  Pass 1  IDiag  3:
 E=-0.146857497910958     Delta-E=       -0.000000001167 Rises=F Damp=F
 DIIS: error= 5.54D-07 at cycle   7 NSaved=   7.
 NSaved= 7 IEnMin= 7 EnMin=-0.146857497910958     IErMin= 7 ErrMin= 5.54D-07
 ErrMax= 5.54D-07 EMaxC= 1.00D-01 BMatC= 1.10D-11 BMatP= 1.96D-10
 IDIUse=1 WtCom= 1.00D+00 WtEn= 0.00D+00
 Coeff-Com:  0.701D-03-0.235D-02 0.708D-02-0.275D-01 0.133D+00-0.553D+00
 Coeff-Com:  0.144D+01
 Coeff:      0.701D-03-0.235D-02 0.708D-02-0.275D-01 0.133D+00-0.553D+00
 Coeff:      0.144D+01
 Gap=     0.456 Goal=   None    Shift=    0.000
 RMSDP=5.97D-07 MaxDP=3.80D-06 DE=-1.17D-09 OVMax= 0.00D+00

 Cycle   8  Pass 1  IDiag  3:
 E=-0.146857497979809     Delta-E=       -0.000000000069 Rises=F Damp=F
 DIIS: error= 1.10D-07 at cycle   8 NSaved=   8.
 NSaved= 8 IEnMin= 8 EnMin=-0.146857497979809     IErMin= 8 ErrMin= 1.10D-07
 ErrMax= 1.10D-07 EMaxC= 1.00D-01 BMatC= 5.78D-13 BMatP= 1.10D-11
 IDIUse=1 WtCom= 1.00D+00 WtEn= 0.00D+00
 Coeff-Com:  0.682D-04-0.192D-03 0.420D-04 0.376D-02-0.338D-01 0.185D+00
 Coeff-Com: -0.657D+00 0.150D+01
 Coeff:      0.682D-04-0.192D-03 0.420D-04 0.376D-02-0.338D-01 0.185D+00
 Coeff:     -0.657D+00 0.150D+01
 Gap=     0.456 Goal=   None    Shift=    0.000
 RMSDP=1.35D-07 MaxDP=7.72D-07 DE=-6.89D-11 OVMax= 0.00D+00

 Cycle   9  Pass 1  IDiag  3:
 E=-0.146857497983518     Delta-E=       -0.000000000004 Rises=F Damp=F
 DIIS: error= 4.06D-08 at cycle   9 NSaved=   9.
 NSaved= 9 IEnMin= 9 EnMin=-0.146857497983518     IErMin= 9 ErrMin= 4.06D-08
 ErrMax= 4.06D-08 EMaxC= 1.00D-01 BMatC= 4.16D-14 BMatP= 5.78D-13
 IDIUse=1 WtCom= 1.00D+00 WtEn= 0.00D+00
 Coeff-Com: -0.273D-04 0.691D-04 0.115D-03-0.282D-02 0.229D-01-0.124D+00
 Coeff-Com:  0.451D+00-0.117D+01 0.182D+01
 Coeff:     -0.273D-04 0.691D-04 0.115D-03-0.282D-02 0.229D-01-0.124D+00
 Coeff:      0.451D+00-0.117D+01 0.182D+01
 Gap=     0.456 Goal=   None    Shift=    0.000
 RMSDP=4.07D-08 MaxDP=2.91D-07 DE=-3.71D-12 OVMax= 0.00D+00

 Cycle  10  Pass 1  IDiag  3:
 E=-0.146857497983703     Delta-E=        0.000000000000 Rises=F Damp=F
 DIIS: error= 8.48D-09 at cycle  10 NSaved=  10.
 NSaved=10 IEnMin=10 EnMin=-0.146857497983703     IErMin=10 ErrMin= 8.48D-09
 ErrMax= 8.48D-09 EMaxC= 1.00D-01 BMatC= 1.81D-15 BMatP= 4.16D-14
 IDIUse=1 WtCom= 1.00D+00 WtEn= 0.00D+00
 Coeff-Com: -0.313D-05 0.189D-04-0.175D-03 0.154D-02-0.108D-01 0.556D-01
 Coeff-Com: -0.199D+00 0.521D+00-0.939D+00 0.157D+01
 Coeff:     -0.313D-05 0.189D-04-0.175D-03 0.154D-02-0.108D-01 0.556D-01
 Coeff:     -0.199D+00 0.521D+00-0.939D+00 0.157D+01
 Gap=     0.456 Goal=   None    Shift=    0.000
 RMSDP=8.45D-09 MaxDP=6.30D-08 DE=-1.85D-13 OVMax= 0.00D+00

 Cycle  11  Pass 2  IDiag  1:
 RMSDP=8.45D-09 MaxDP=6.30D-08 DE=-1.85D-13 OVMax= 0.00D+00

 SCF Done:  E(RPM6) = -0.146857497984     A.U. after   11 cycles
             Convg  =    0.8453D-08             -V/T =  0.9974
 KE=-5.682059592574D+01 PE=-1.226858859130D+02 EE= 8.106255467258D+01
 Leave Link  502 at Wed Feb 19 11:30:34 2020, MaxMem= 1073741824 cpu:       0.0
 (Enter /home/dgomes/software//g09/l701.exe)
 Compute integral first derivatives.
 ... and contract with generalized density number  0.
 Leave Link  701 at Wed Feb 19 11:30:34 2020, MaxMem= 1073741824 cpu:       0.0
 (Enter /home/dgomes/software//g09/l702.exe)
 L702 exits ... SP integral derivatives will be done elsewhere.
 Leave Link  702 at Wed Feb 19 11:30:34 2020, MaxMem= 1073741824 cpu:       0.0
 (Enter /home/dgomes/software//g09/l703.exe)
 Compute integral first derivatives, UseDBF=F ICtDFT=           0.
 Integral derivatives from FoFDir, PRISM(SPDF).
 Calling FoFJK, ICntrl=      2127 FMM=F ISym2X=0 I1Cent= 0 IOpClX= 0 NMat=1 NMatS=1 NMatT=0.
 FoFCou: FMM=F IPFlag=           0 FMFlag=      100000 FMFlg1=         800
         NFxFlg=           0 DoJE=F BraDBF=F KetDBF=F FulRan=T
         Omega=  0.000000  0.000000  1.000000  0.000000  0.000000 ICntrl=    2127 IOpCl=  0
         NMat0=    1 NMatS0=    1 NMatT0=    0 NMatD0=    1 NMtDS0=    0 NMtDT0=    0
         I1Cent=           0 NGrid=           0.
 Symmetry not used in FoFCou.
 Leave Link  703 at Wed Feb 19 11:30:34 2020, MaxMem= 1073741824 cpu:       0.0
 (Enter /home/dgomes/software//g09/l716.exe)
 Dipole        = 2.73734573D-05-2.71303697D-04 4.42413457D-04
 -------------------------------------------------------------------
 Center     Atomic                   Forces (Hartrees/Bohr)
 Number     Number              X              Y              Z
 -------------------------------------------------------------------
      1        6           0.005289582    0.000065328   -0.003152001
      2        6          -0.005380232    0.000121102    0.003184434
      3        8          -0.001016131   -0.000014696   -0.000498246
      4        8           0.001025359   -0.000009429    0.000716973
      5        1          -0.001074025   -0.000063125   -0.001378980
      6        1          -0.001052900   -0.000001948   -0.001410789
      7        1           0.001080303    0.000045839    0.001375967
      8        1           0.001105925   -0.000138688    0.001349958
      9        1          -0.002112171   -0.000000999   -0.003873250
     10        1           0.002134290   -0.000003384    0.003685934
 -------------------------------------------------------------------
 Cartesian Forces:  Max     0.005380232 RMS     0.002079724
 Leave Link  716 at Wed Feb 19 11:30:34 2020, MaxMem= 1073741824 cpu:       0.0
 (Enter /home/dgomes/software//g09/l103.exe)

 GradGradGradGradGradGradGradGradGradGradGradGradGradGradGradGradGradGrad
 Berny optimization.
 Using GEDIIS/GDIIS optimizer.
 Internal  Forces:  Max     0.004611491 RMS     0.002151620
 Search for a local minimum.
 Step number   2 out of a maximum of   49 on scan point     1 out of    37
 All quantities printed in internal units (Hartrees-Bohrs-Radians)
 RMS Force = .21797D-02 SwitMx=.10000D-02 MixMth= 1
 Mixed Optimization -- RFO/linear search
 Update second derivatives using D2CorX and points    1    2
 DE= -4.87D-03 DEPred=-5.22D-03 R= 9.33D-01
 SS=  1.41D+00  RLast= 2.19D-01 DXNew= 5.0454D-01 6.5577D-01
 Trust test= 9.33D-01 RLast= 2.19D-01 DXMaxT set to 5.05D-01
 Use linear search instead of GDIIS.
     Eigenvalues ---    0.01390   0.01393   0.01906   0.05449   0.05593
     Eigenvalues ---    0.05698   0.10921   0.11040   0.13088   0.13393
     Eigenvalues ---    0.16000   0.18300   0.18766   0.21974   0.28855
     Eigenvalues ---    0.34497   0.34571   0.34593   0.34644   0.42056
     Eigenvalues ---    0.45219   0.51313   0.529311000.000001000.00000
     Eigenvalues --- 1000.000001000.000001000.000001000.000001000.00000
     Eigenvalues --- 1000.000001000.000001000.000001000.000001000.00000
     Eigenvalues --- 1000.000001000.000001000.000001000.00000
 RFO step:  Lambda=-8.86546098D-04 EMin= 1.39018009D-02
 Quartic linear search produced a step of -0.00670.
 Iteration  1 RMS(Cart)=  0.01736234 RMS(Int)=  0.00022440
 Iteration  2 RMS(Cart)=  0.00021613 RMS(Int)=  0.00018404
 Iteration  3 RMS(Cart)=  0.00000001 RMS(Int)=  0.00018404
 Iteration  1 RMS(Cart)=  0.00000018 RMS(Int)=  0.00000025
 Variable       Old X    -DE/DX   Delta X   Delta X   Delta X     New X
                                 (Linear)    (Quad)   (Total)
    R1        2.88921   0.00197   0.00013   0.00504   0.00517   2.89438
    R2        2.72604  -0.00442  -0.00025  -0.00693  -0.00718   2.71886
    R3        2.08888  -0.00012  -0.00017   0.00200   0.00183   2.09072
    R4        2.08853  -0.00004  -0.00017   0.00224   0.00207   2.09060
    R5        2.72594  -0.00438  -0.00025  -0.00681  -0.00706   2.71889
    R6        2.08874  -0.00011  -0.00017   0.00202   0.00185   2.09059
    R7        2.08924  -0.00020  -0.00016   0.00165   0.00149   2.09073
    R8        1.85918  -0.00393  -0.00004  -0.00706  -0.00710   1.85209
    R9        1.85827  -0.00374  -0.00004  -0.00660  -0.00664   1.85163
    A1        1.83401  -0.00461   0.00057  -0.03217  -0.03152   1.80248
    A2        1.93423   0.00236  -0.00010   0.01882   0.01841   1.95264
    A3        1.93435   0.00237  -0.00010   0.01880   0.01839   1.95274
    A4        1.92388   0.00037  -0.00015  -0.00629  -0.00627   1.91761
    A5        1.92414   0.00036  -0.00014  -0.00658  -0.00655   1.91758
    A6        1.91223  -0.00091  -0.00007   0.00602   0.00551   1.91774
    A7        1.83398  -0.00460   0.00057  -0.03210  -0.03145   1.80253
    A8        1.93454   0.00234  -0.00010   0.01858   0.01817   1.95271
    A9        1.93415   0.00236  -0.00010   0.01878   0.01838   1.95253
   A10        1.92420   0.00036  -0.00015  -0.00644  -0.00643   1.91777
   A11        1.92379   0.00037  -0.00015  -0.00618  -0.00617   1.91762
   A12        1.91218  -0.00091  -0.00007   0.00598   0.00548   1.91766
   A13        1.92763  -0.00374  -0.00066  -0.01389  -0.01455   1.91308
   A14        1.92808  -0.00379  -0.00067  -0.01409  -0.01476   1.91333
    D1       -3.14087  -0.00001   0.00000   0.00000   0.00000  -3.14087
    D2        1.06390   0.00103  -0.00010   0.01680   0.01687   1.08076
    D3       -1.06315  -0.00103   0.00011  -0.01636  -0.01643  -1.07958
    D4       -1.06298  -0.00104   0.00011  -0.01652  -0.01659  -1.07956
    D5       -3.14139   0.00000   0.00000   0.00028   0.00028  -3.14112
    D6        1.01475  -0.00206   0.00021  -0.03288  -0.03302   0.98173
    D7        1.06406   0.00103  -0.00012   0.01688   0.01694   1.08100
    D8       -1.01436   0.00208  -0.00022   0.03367   0.03380  -0.98056
    D9       -3.14141   0.00001  -0.00001   0.00051   0.00051  -3.14090
   D10        3.14146   0.00000   0.00000   0.00012   0.00011   3.14157
   D11        1.05665  -0.00033  -0.00013  -0.00041  -0.00068   1.05597
   D12       -1.05664   0.00033   0.00013   0.00047   0.00074  -1.05590
   D13        0.00068  -0.00001   0.00000   0.00000   0.00000   0.00068
   D14       -3.14137   0.00001   0.00000   0.00020   0.00020  -3.14117
   D15       -1.05604   0.00033   0.00013   0.00039   0.00066  -1.05538
   D16        1.05716  -0.00033  -0.00014  -0.00038  -0.00065   1.05651
         Item               Value     Threshold  Converged?
 Maximum Force            0.004612     0.000450     NO 
 RMS     Force            0.002180     0.000300     NO 
 Maximum Displacement     0.041700     0.001800     NO 
 RMS     Displacement     0.017480     0.001200     NO 
 Predicted change in Energy=-4.528459D-04
 GradGradGradGradGradGradGradGradGradGradGradGradGradGradGradGradGradGrad

 Leave Link  103 at Wed Feb 19 11:30:34 2020, MaxMem= 1073741824 cpu:       0.0
 (Enter /home/dgomes/software//g09/l202.exe)
                          Input orientation:                          
 ---------------------------------------------------------------------
 Center     Atomic      Atomic             Coordinates (Angstroms)
 Number     Number       Type             X           Y           Z
 ---------------------------------------------------------------------
      1          6           0        0.066679    0.000336    0.006738
      2          6           0       -0.066437    0.000082    1.532582
      3          8           0        1.299860    0.000331    1.983468
      4          8           0       -1.299623    0.001105   -0.444082
      5          1           0        0.584768    0.905784   -0.361743
      6          1           0        0.583848   -0.905371   -0.362207
      7          1           0       -0.584060   -0.905515    1.901152
      8          1           0       -0.584287    0.905590    1.901271
      9          1           0        1.322923   -0.000196    2.963278
     10          1           0       -1.322964    0.001339   -1.423642
 ---------------------------------------------------------------------
                    Distance matrix (angstroms):
                    1          2          3          4          5
     1  C    0.000000
     2  C    1.531639   0.000000
     3  O    2.329849   1.438773   0.000000
     4  O    1.438757   2.329796   3.556727   0.000000
     5  H    1.106359   2.198371   2.613660   2.091926   0.000000
     6  H    1.106295   2.198395   2.614414   2.091857   1.811155
     7  H    2.198370   1.106293   2.092006   2.614214   3.125326
     8  H    2.198294   1.106365   2.091952   2.613519   2.547140
     9  H    3.212363   1.994295   0.980082   4.299750   3.524406
    10  H    1.994266   3.212184   4.299721   0.979839   2.363280
                    6          7          8          9         10
     6  H    0.000000
     7  H    2.546921   0.000000
     8  H    3.125292   1.811105   0.000000
     9  H    3.524829   2.363112   2.363421   0.000000
    10  H    2.363197   3.524574   3.523970   5.123064   0.000000
 Symmetry turned off by external request.
 Stoichiometry    C2H6O2
 Framework group  C1[X(C2H6O2)]
 Deg. of freedom    24
 Full point group                 C1      NOp   1
 Rotational constants (GHZ):     28.5501846      4.0782734      3.7432836
 Leave Link  202 at Wed Feb 19 11:30:34 2020, MaxMem= 1073741824 cpu:       0.0
 (Enter /home/dgomes/software//g09/l301.exe)
 Standard basis: VSTO-6G (5D, 7F)
 Ernie: Thresh=  0.10000D-02 Tol=  0.10000D-05 Strict=F.
  NNHCO=     0 NNPyr=     0 NCTC=     0               EPep=         0.000000000
    EC=        63.338360959  ECS=         1.786805880   EG=         0.115946545
   EHC=         0.000708797  EAt=       -32.050532544  AtH=         1.232666658
 EPDDG=         0.000000000  ECC=        65.241822181 EAtT=        33.283199203
 Integral buffers will be    131072 words long.
 Regular integral format.
 Two-electron integral symmetry is turned off.
    22 basis functions,   132 primitive gaussians,    22 cartesian basis functions
    13 alpha electrons       13 beta electrons
       nuclear repulsion energy        98.5250213837 Hartrees.
 IExCor=    0 DFT=F Ex=HF Corr=None ExCW=0 ScaHFX=  1.000000
 ScaDFX=  1.000000  1.000000  1.000000  1.000000 ScalE2=  1.000000  1.000000
 IRadAn=      0 IRanWt=     -1 IRanGd=            0 ICorTp=0
 Leave Link  301 at Wed Feb 19 11:30:34 2020, MaxMem= 1073741824 cpu:       0.0
 (Enter /home/dgomes/software//g09/l302.exe)
 Do NDO integrals.
 NPDir=0 NMtPBC=     1 NCelOv=     1 NCel=       1 NClECP=     1 NCelD=      1
         NCelK=      1 NCelE2=     1 NClLst=     1 CellRange=     0.0.
 One-electron integrals computed using PRISM.
 NBasis=    22 RedAO= F  NBF=    22
 NBsUse=    22 1.00D-04 NBFU=    22
 Leave Link  302 at Wed Feb 19 11:30:34 2020, MaxMem= 1073741824 cpu:       0.0
 (Enter /home/dgomes/software//g09/l303.exe)
 DipDrv:  MaxL=1.
 Leave Link  303 at Wed Feb 19 11:30:34 2020, MaxMem= 1073741824 cpu:       0.0
 (Enter /home/dgomes/software//g09/l401.exe)
 Initial guess read from the read-write file.
 B after Tr=     0.000000    0.000000    0.000000
         Rot=    1.000000    0.000000    0.000000    0.000000 Ang=   0.00 deg.
 Guess basis will be translated and rotated to current coordinates.
 Leave Link  401 at Wed Feb 19 11:30:34 2020, MaxMem= 1073741824 cpu:       0.1
 (Enter /home/dgomes/software//g09/l502.exe)
 Closed shell SCF:
 Requested convergence on RMS density matrix=1.00D-08 within 128 cycles.
 Requested convergence on MAX density matrix=1.00D-06.
 Requested convergence on             energy=1.00D-06.
 No special actions if energy rises.
 Using DIIS extrapolation, IDIIS=  1040.
 Overlap will be assumed to be unity.
 Two-electron integral symmetry not used.
 Keep J ints in memory in canonical form, NReq=879868.
 IEnd=       78773 IEndB=       78773 NGot=  1073741824 MDV=  1073679089
 LenX=  1073679089 LenY=  1073678164
 Symmetry not used in FoFDir.
 MinBra= 0 MaxBra= 1 Meth=40.
 IRaf=       0 NMat=   1 IRICut=       1 DoRegI=T DoRafI=F ISym2E= 0 JSym2E=0.

 Cycle   1  Pass 1  IDiag  1:
 E=-0.147022081550972    
 DIIS: error= 9.40D-04 at cycle   1 NSaved=   1.
 NSaved= 1 IEnMin= 1 EnMin=-0.147022081550972     IErMin= 1 ErrMin= 9.40D-04
 ErrMax= 9.40D-04 EMaxC= 1.00D-01 BMatC= 4.71D-05 BMatP= 4.71D-05
 IDIUse=3 WtCom= 9.91D-01 WtEn= 9.40D-03
 Coeff-Com:  0.100D+01
 Coeff-En:   0.100D+01
 Coeff:      0.100D+01
 RMSDP=5.10D-04 MaxDP=2.14D-03              OVMax= 0.00D+00

 Cycle   2  Pass 1  IDiag  3:
 E=-0.147162741257148     Delta-E=       -0.000140659706 Rises=F Damp=F
 DIIS: error= 3.26D-04 at cycle   2 NSaved=   2.
 NSaved= 2 IEnMin= 2 EnMin=-0.147162741257148     IErMin= 2 ErrMin= 3.26D-04
 ErrMax= 3.26D-04 EMaxC= 1.00D-01 BMatC= 4.88D-06 BMatP= 4.71D-05
 IDIUse=3 WtCom= 9.97D-01 WtEn= 3.26D-03
 Coeff-Com: -0.423D+00 0.142D+01
 Coeff-En:   0.000D+00 0.100D+01
 Coeff:     -0.421D+00 0.142D+01
 Gap=     0.458 Goal=   None    Shift=    0.000
 RMSDP=2.51D-04 MaxDP=1.17D-03 DE=-1.41D-04 OVMax= 0.00D+00

 Cycle   3  Pass 1  IDiag  3:
 E=-0.147181402642758     Delta-E=       -0.000018661386 Rises=F Damp=F
 DIIS: error= 4.93D-05 at cycle   3 NSaved=   3.
 NSaved= 3 IEnMin= 3 EnMin=-0.147181402642758     IErMin= 3 ErrMin= 4.93D-05
 ErrMax= 4.93D-05 EMaxC= 1.00D-01 BMatC= 9.04D-08 BMatP= 4.88D-06
 IDIUse=1 WtCom= 1.00D+00 WtEn= 0.00D+00
 Coeff-Com:  0.156D+00-0.583D+00 0.143D+01
 Coeff:      0.156D+00-0.583D+00 0.143D+01
 Gap=     0.458 Goal=   None    Shift=    0.000
 RMSDP=3.89D-05 MaxDP=2.05D-04 DE=-1.87D-05 OVMax= 0.00D+00

 Cycle   4  Pass 1  IDiag  3:
 E=-0.147181785748373     Delta-E=       -0.000000383106 Rises=F Damp=F
 DIIS: error= 7.39D-06 at cycle   4 NSaved=   4.
 NSaved= 4 IEnMin= 4 EnMin=-0.147181785748373     IErMin= 4 ErrMin= 7.39D-06
 ErrMax= 7.39D-06 EMaxC= 1.00D-01 BMatC= 2.51D-09 BMatP= 9.04D-08
 IDIUse=1 WtCom= 1.00D+00 WtEn= 0.00D+00
 Coeff-Com: -0.964D-01 0.364D+00-0.939D+00 0.167D+01
 Coeff:     -0.964D-01 0.364D+00-0.939D+00 0.167D+01
 Gap=     0.458 Goal=   None    Shift=    0.000
 RMSDP=8.17D-06 MaxDP=4.96D-05 DE=-3.83D-07 OVMax= 0.00D+00

 Cycle   5  Pass 1  IDiag  3:
 E=-0.147181799693740     Delta-E=       -0.000000013945 Rises=F Damp=F
 DIIS: error= 1.12D-06 at cycle   5 NSaved=   5.
 NSaved= 5 IEnMin= 5 EnMin=-0.147181799693740     IErMin= 5 ErrMin= 1.12D-06
 ErrMax= 1.12D-06 EMaxC= 1.00D-01 BMatC= 7.49D-11 BMatP= 2.51D-09
 IDIUse=1 WtCom= 1.00D+00 WtEn= 0.00D+00
 Coeff-Com:  0.433D-01-0.164D+00 0.425D+00-0.843D+00 0.154D+01
 Coeff:      0.433D-01-0.164D+00 0.425D+00-0.843D+00 0.154D+01
 Gap=     0.458 Goal=   None    Shift=    0.000
 RMSDP=1.41D-06 MaxDP=7.85D-06 DE=-1.39D-08 OVMax= 0.00D+00

 Cycle   6  Pass 1  IDiag  3:
 E=-0.147181800085633     Delta-E=       -0.000000000392 Rises=F Damp=F
 DIIS: error= 1.32D-07 at cycle   6 NSaved=   6.
 NSaved= 6 IEnMin= 6 EnMin=-0.147181800085633     IErMin= 6 ErrMin= 1.32D-07
 ErrMax= 1.32D-07 EMaxC= 1.00D-01 BMatC= 1.37D-12 BMatP= 7.49D-11
 IDIUse=1 WtCom= 1.00D+00 WtEn= 0.00D+00
 Coeff-Com: -0.152D-01 0.574D-01-0.149D+00 0.297D+00-0.599D+00 0.141D+01
 Coeff:     -0.152D-01 0.574D-01-0.149D+00 0.297D+00-0.599D+00 0.141D+01
 Gap=     0.458 Goal=   None    Shift=    0.000
 RMSDP=1.68D-07 MaxDP=7.98D-07 DE=-3.92D-10 OVMax= 0.00D+00

 Cycle   7  Pass 1  IDiag  3:
 E=-0.147181800092568     Delta-E=       -0.000000000007 Rises=F Damp=F
 DIIS: error= 4.55D-08 at cycle   7 NSaved=   7.
 NSaved= 7 IEnMin= 7 EnMin=-0.147181800092568     IErMin= 7 ErrMin= 4.55D-08
 ErrMax= 4.55D-08 EMaxC= 1.00D-01 BMatC= 6.26D-14 BMatP= 1.37D-12
 IDIUse=1 WtCom= 1.00D+00 WtEn= 0.00D+00
 Coeff-Com:  0.503D-02-0.190D-01 0.492D-01-0.977D-01 0.198D+00-0.571D+00
 Coeff-Com:  0.143D+01
 Coeff:      0.503D-02-0.190D-01 0.492D-01-0.977D-01 0.198D+00-0.571D+00
 Coeff:      0.143D+01
 Gap=     0.458 Goal=   None    Shift=    0.000
 RMSDP=4.06D-08 MaxDP=2.62D-07 DE=-6.93D-12 OVMax= 0.00D+00

 Cycle   8  Pass 1  IDiag  3:
 E=-0.147181800092895     Delta-E=        0.000000000000 Rises=F Damp=F
 DIIS: error= 1.27D-08 at cycle   8 NSaved=   8.
 NSaved= 8 IEnMin= 8 EnMin=-0.147181800092895     IErMin= 8 ErrMin= 1.27D-08
 ErrMax= 1.27D-08 EMaxC= 1.00D-01 BMatC= 4.98D-15 BMatP= 6.26D-14
 IDIUse=1 WtCom= 1.00D+00 WtEn= 0.00D+00
 Coeff-Com: -0.699D-03 0.264D-02-0.681D-02 0.132D-01-0.260D-01 0.985D-01
 Coeff-Com: -0.526D+00 0.144D+01
 Coeff:     -0.699D-03 0.264D-02-0.681D-02 0.132D-01-0.260D-01 0.985D-01
 Coeff:     -0.526D+00 0.144D+01
 Gap=     0.458 Goal=   None    Shift=    0.000
 RMSDP=1.33D-08 MaxDP=8.82D-08 DE=-3.27D-13 OVMax= 0.00D+00

 Cycle   9  Pass 1  IDiag  3:
 E=-0.147181800092938     Delta-E=        0.000000000000 Rises=F Damp=F
 DIIS: error= 3.09D-09 at cycle   9 NSaved=   9.
 NSaved= 9 IEnMin= 9 EnMin=-0.147181800092938     IErMin= 9 ErrMin= 3.09D-09
 ErrMax= 3.09D-09 EMaxC= 1.00D-01 BMatC= 2.83D-16 BMatP= 4.98D-15
 IDIUse=1 WtCom= 1.00D+00 WtEn= 0.00D+00
 Coeff-Com:  0.134D-03-0.507D-03 0.130D-02-0.243D-02 0.426D-02-0.224D-01
 Coeff-Com:  0.184D+00-0.702D+00 0.154D+01
 Coeff:      0.134D-03-0.507D-03 0.130D-02-0.243D-02 0.426D-02-0.224D-01
 Coeff:      0.184D+00-0.702D+00 0.154D+01
 Gap=     0.458 Goal=   None    Shift=    0.000
 RMSDP=3.05D-09 MaxDP=1.87D-08 DE=-4.26D-14 OVMax= 0.00D+00

 Cycle  10  Pass 2  IDiag  1:
 RMSDP=3.05D-09 MaxDP=1.87D-08 DE=-4.26D-14 OVMax= 0.00D+00

 SCF Done:  E(RPM6) = -0.147181800093     A.U. after   10 cycles
             Convg  =    0.3049D-08             -V/T =  0.9974
 KE=-5.682762159343D+01 PE=-1.231208434975D+02 EE= 8.127626190714D+01
 Leave Link  502 at Wed Feb 19 11:30:34 2020, MaxMem= 1073741824 cpu:       0.0
 (Enter /home/dgomes/software//g09/l701.exe)
 Compute integral first derivatives.
 ... and contract with generalized density number  0.
 Leave Link  701 at Wed Feb 19 11:30:34 2020, MaxMem= 1073741824 cpu:       0.0
 (Enter /home/dgomes/software//g09/l702.exe)
 L702 exits ... SP integral derivatives will be done elsewhere.
 Leave Link  702 at Wed Feb 19 11:30:34 2020, MaxMem= 1073741824 cpu:       0.0
 (Enter /home/dgomes/software//g09/l703.exe)
 Compute integral first derivatives, UseDBF=F ICtDFT=           0.
 Integral derivatives from FoFDir, PRISM(SPDF).
 Calling FoFJK, ICntrl=      2127 FMM=F ISym2X=0 I1Cent= 0 IOpClX= 0 NMat=1 NMatS=1 NMatT=0.
 FoFCou: FMM=F IPFlag=           0 FMFlag=      100000 FMFlg1=         800
         NFxFlg=           0 DoJE=F BraDBF=F KetDBF=F FulRan=T
         Omega=  0.000000  0.000000  1.000000  0.000000  0.000000 ICntrl=    2127 IOpCl=  0
         NMat0=    1 NMatS0=    1 NMatT0=    0 NMatD0=    1 NMtDS0=    0 NMtDT0=    0
         I1Cent=           0 NGrid=           0.
 Symmetry not used in FoFCou.
 Leave Link  703 at Wed Feb 19 11:30:35 2020, MaxMem= 1073741824 cpu:       0.0
 (Enter /home/dgomes/software//g09/l716.exe)
 Dipole        =-6.64549271D-05-6.15168087D-04 1.27802000D-04
 -------------------------------------------------------------------
 Center     Atomic                   Forces (Hartrees/Bohr)
 Number     Number              X              Y              Z
 -------------------------------------------------------------------
      1        6           0.000906939    0.000013047   -0.000179569
      2        6          -0.000905087    0.000031235    0.000163886
      3        8           0.001421470   -0.000005800    0.003397748
      4        8          -0.001452098    0.000003105   -0.003299907
      5        1          -0.000372125   -0.000904686    0.000528670
      6        1          -0.000357323    0.000884118    0.000522215
      7        1           0.000372951    0.000880927   -0.000517429
      8        1           0.000376641   -0.000902990   -0.000521515
      9        1           0.000578193    0.000000736   -0.001410181
     10        1          -0.000569561    0.000000309    0.001316082
 -------------------------------------------------------------------
 Cartesian Forces:  Max     0.003397748 RMS     0.001117664
 Leave Link  716 at Wed Feb 19 11:30:35 2020, MaxMem= 1073741824 cpu:       0.0
 (Enter /home/dgomes/software//g09/l103.exe)

 GradGradGradGradGradGradGradGradGradGradGradGradGradGradGradGradGradGrad
 Berny optimization.
 Using GEDIIS/GDIIS optimizer.
 Internal  Forces:  Max     0.002541463 RMS     0.000928405
 Search for a local minimum.
 Step number   3 out of a maximum of   49 on scan point     1 out of    37
 All quantities printed in internal units (Hartrees-Bohrs-Radians)
 RMS Force = .94054D-03 SwitMx=.10000D-02 MixMth= 2
 Mixed Optimization -- En-DIIS/RFO-DIIS
 Update second derivatives using D2CorX and points    1    2    3
 DE= -3.24D-04 DEPred=-4.53D-04 R= 7.16D-01
 SS=  1.41D+00  RLast= 8.70D-02 DXNew= 8.4853D-01 2.6097D-01
 Trust test= 7.16D-01 RLast= 8.70D-02 DXMaxT set to 5.05D-01
 Use linear search instead of GDIIS.
     Eigenvalues ---    0.01390   0.01393   0.01960   0.05516   0.05560
     Eigenvalues ---    0.05763   0.10897   0.10937   0.12973   0.13261
     Eigenvalues ---    0.16000   0.18236   0.21500   0.21935   0.28835
     Eigenvalues ---    0.34503   0.34571   0.34594   0.35568   0.42056
     Eigenvalues ---    0.49165   0.51289   0.517731000.000001000.00000
     Eigenvalues --- 1000.000001000.000001000.000001000.000001000.00000
     Eigenvalues --- 1000.000001000.000001000.000001000.000001000.00000
     Eigenvalues --- 1000.000001000.000001000.000001000.00000
 RFO step:  Lambda=-3.69362457D-05 EMin= 1.39018015D-02
 Quartic linear search produced a step of -0.21216.
 Iteration  1 RMS(Cart)=  0.00460569 RMS(Int)=  0.00003678
 Iteration  2 RMS(Cart)=  0.00000564 RMS(Int)=  0.00003626
 Iteration  3 RMS(Cart)=  0.00000000 RMS(Int)=  0.00003626
 Iteration  1 RMS(Cart)=  0.00000011 RMS(Int)=  0.00000016
 Variable       Old X    -DE/DX   Delta X   Delta X   Delta X     New X
                                 (Linear)    (Quad)   (Total)
    R1        2.89438   0.00095  -0.00110   0.00405   0.00296   2.89733
    R2        2.71886   0.00254   0.00152   0.00248   0.00401   2.72286
    R3        2.09072  -0.00109  -0.00039  -0.00235  -0.00274   2.08798
    R4        2.09060  -0.00107  -0.00044  -0.00223  -0.00267   2.08792
    R5        2.71889   0.00252   0.00150   0.00247   0.00397   2.72285
    R6        2.09059  -0.00107  -0.00039  -0.00229  -0.00268   2.08791
    R7        2.09073  -0.00109  -0.00032  -0.00242  -0.00273   2.08800
    R8        1.85209  -0.00140   0.00151  -0.00388  -0.00237   1.84971
    R9        1.85163  -0.00130   0.00141  -0.00363  -0.00222   1.84940
    A1        1.80248   0.00177   0.00669   0.00055   0.00722   1.80970
    A2        1.95264  -0.00053  -0.00391   0.00176  -0.00208   1.95056
    A3        1.95274  -0.00053  -0.00390   0.00176  -0.00208   1.95066
    A4        1.91761  -0.00044   0.00133  -0.00198  -0.00068   1.91693
    A5        1.91758  -0.00044   0.00139  -0.00201  -0.00066   1.91692
    A6        1.91774   0.00022  -0.00117  -0.00020  -0.00128   1.91646
    A7        1.80253   0.00177   0.00667   0.00055   0.00720   1.80973
    A8        1.95271  -0.00053  -0.00385   0.00173  -0.00207   1.95064
    A9        1.95253  -0.00052  -0.00390   0.00185  -0.00199   1.95053
   A10        1.91777  -0.00045   0.00136  -0.00212  -0.00079   1.91698
   A11        1.91762  -0.00044   0.00131  -0.00197  -0.00070   1.91692
   A12        1.91766   0.00023  -0.00116  -0.00016  -0.00124   1.91642
   A13        1.91308   0.00113   0.00309   0.00074   0.00382   1.91691
   A14        1.91333   0.00111   0.00313   0.00058   0.00371   1.91704
    D1       -3.14087   0.00000   0.00000   0.00000   0.00000  -3.14087
    D2        1.08076  -0.00025  -0.00358   0.00135  -0.00226   1.07850
    D3       -1.07958   0.00025   0.00349  -0.00112   0.00240  -1.07718
    D4       -1.07956   0.00025   0.00352  -0.00117   0.00238  -1.07718
    D5       -3.14112   0.00001  -0.00006   0.00018   0.00012  -3.14099
    D6        0.98173   0.00050   0.00701  -0.00229   0.00478   0.98651
    D7        1.08100  -0.00026  -0.00359   0.00121  -0.00242   1.07858
    D8       -0.98056  -0.00050  -0.00717   0.00257  -0.00467  -0.98523
    D9       -3.14090   0.00000  -0.00011   0.00009  -0.00001  -3.14091
   D10        3.14157   0.00000  -0.00002   0.00001  -0.00001   3.14156
   D11        1.05597  -0.00014   0.00014  -0.00140  -0.00123   1.05474
   D12       -1.05590   0.00014  -0.00016   0.00140   0.00122  -1.05468
   D13        0.00068   0.00000   0.00000   0.00000   0.00000   0.00068
   D14       -3.14117   0.00000  -0.00004   0.00010   0.00006  -3.14112
   D15       -1.05538   0.00014  -0.00014   0.00140   0.00123  -1.05415
   D16        1.05651  -0.00015   0.00014  -0.00142  -0.00125   1.05526
         Item               Value     Threshold  Converged?
 Maximum Force            0.002541     0.000450     NO 
 RMS     Force            0.000941     0.000300     NO 
 Maximum Displacement     0.012956     0.001800     NO 
 RMS     Displacement     0.004604     0.001200     NO 
 Predicted change in Energy=-4.384209D-05
 GradGradGradGradGradGradGradGradGradGradGradGradGradGradGradGradGradGrad

 Leave Link  103 at Wed Feb 19 11:30:35 2020, MaxMem= 1073741824 cpu:       0.0
 (Enter /home/dgomes/software//g09/l202.exe)
                          Input orientation:                          
 ---------------------------------------------------------------------
 Center     Atomic      Atomic             Coordinates (Angstroms)
 Number     Number       Type             X           Y           Z
 ---------------------------------------------------------------------
      1          6           0        0.064108    0.000337    0.005737
      2          6           0       -0.063914    0.000116    1.533587
      3          8           0        1.302660    0.000343    1.990299
      4          8           0       -1.302483    0.001126   -0.450938
      5          1           0        0.582647    0.904181   -0.361706
      6          1           0        0.581734   -0.903817   -0.362138
      7          1           0       -0.581885   -0.903956    1.901152
      8          1           0       -0.582183    0.904017    1.901294
      9          1           0        1.325736   -0.000216    2.968852
     10          1           0       -1.325714    0.001352   -1.429323
 ---------------------------------------------------------------------
                    Distance matrix (angstroms):
                    1          2          3          4          5
     1  C    0.000000
     2  C    1.533204   0.000000
     3  O    2.339336   1.440871   0.000000
     4  O    1.440876   2.339314   3.570211   0.000000
     5  H    1.104912   2.197159   2.620548   2.092172   0.000000
     6  H    1.104881   2.197209   2.621297   2.092148   1.807998
     7  H    2.197191   1.104874   2.092179   2.621214   3.121862
     8  H    2.197149   1.104920   2.092171   2.620503   2.545191
     9  H    3.220520   1.997777   0.978825   4.313061   3.530259
    10  H    1.997750   3.220400   4.313023   0.978662   2.365744
                    6          7          8          9         10
     6  H    0.000000
     7  H    2.544895   0.000000
     8  H    3.121873   1.807973   0.000000
     9  H    3.530655   2.365533   2.365897   0.000000
    10  H    2.365708   3.530571   3.529965   5.135575   0.000000
 Symmetry turned off by external request.
 Stoichiometry    C2H6O2
 Framework group  C1[X(C2H6O2)]
 Deg. of freedom    24
 Full point group                 C1      NOp   1
 Rotational constants (GHZ):     28.6922657      4.0483335      3.7198160
 Leave Link  202 at Wed Feb 19 11:30:35 2020, MaxMem= 1073741824 cpu:       0.0
 (Enter /home/dgomes/software//g09/l301.exe)
 Standard basis: VSTO-6G (5D, 7F)
 Ernie: Thresh=  0.10000D-02 Tol=  0.10000D-05 Strict=F.
  NNHCO=     0 NNPyr=     0 NCTC=     0               EPep=         0.000000000
    EC=        63.261897040  ECS=         1.786788996   EG=         0.115672353
   EHC=         0.000716274  EAt=       -32.050532544  AtH=         1.232666658
 EPDDG=         0.000000000  ECC=        65.165074662 EAtT=        33.283199203
 Integral buffers will be    131072 words long.
 Regular integral format.
 Two-electron integral symmetry is turned off.
    22 basis functions,   132 primitive gaussians,    22 cartesian basis functions
    13 alpha electrons       13 beta electrons
       nuclear repulsion energy        98.4482738653 Hartrees.
 IExCor=    0 DFT=F Ex=HF Corr=None ExCW=0 ScaHFX=  1.000000
 ScaDFX=  1.000000  1.000000  1.000000  1.000000 ScalE2=  1.000000  1.000000
 IRadAn=      0 IRanWt=     -1 IRanGd=            0 ICorTp=0
 Leave Link  301 at Wed Feb 19 11:30:35 2020, MaxMem= 1073741824 cpu:       0.0
 (Enter /home/dgomes/software//g09/l302.exe)
 Do NDO integrals.
 NPDir=0 NMtPBC=     1 NCelOv=     1 NCel=       1 NClECP=     1 NCelD=      1
         NCelK=      1 NCelE2=     1 NClLst=     1 CellRange=     0.0.
 One-electron integrals computed using PRISM.
 NBasis=    22 RedAO= F  NBF=    22
 NBsUse=    22 1.00D-04 NBFU=    22
 Leave Link  302 at Wed Feb 19 11:30:35 2020, MaxMem= 1073741824 cpu:       0.1
 (Enter /home/dgomes/software//g09/l303.exe)
 DipDrv:  MaxL=1.
 Leave Link  303 at Wed Feb 19 11:30:35 2020, MaxMem= 1073741824 cpu:       0.0
 (Enter /home/dgomes/software//g09/l401.exe)
 Initial guess read from the read-write file.
 B after Tr=     0.000000    0.000000    0.000000
         Rot=    1.000000    0.000000    0.000000    0.000000 Ang=   0.00 deg.
 Guess basis will be translated and rotated to current coordinates.
 Leave Link  401 at Wed Feb 19 11:30:35 2020, MaxMem= 1073741824 cpu:       0.1
 (Enter /home/dgomes/software//g09/l502.exe)
 Closed shell SCF:
 Requested convergence on RMS density matrix=1.00D-08 within 128 cycles.
 Requested convergence on MAX density matrix=1.00D-06.
 Requested convergence on             energy=1.00D-06.
 No special actions if energy rises.
 Using DIIS extrapolation, IDIIS=  1040.
 Overlap will be assumed to be unity.
 Two-electron integral symmetry not used.
 Keep J ints in memory in canonical form, NReq=879868.
 IEnd=       78773 IEndB=       78773 NGot=  1073741824 MDV=  1073679089
 LenX=  1073679089 LenY=  1073678164
 Symmetry not used in FoFDir.
 MinBra= 0 MaxBra= 1 Meth=40.
 IRaf=       0 NMat=   1 IRICut=       1 DoRegI=T DoRafI=F ISym2E= 0 JSym2E=0.

 Cycle   1  Pass 1  IDiag  1:
 E=-0.147217300508572    
 DIIS: error= 2.84D-04 at cycle   1 NSaved=   1.
 NSaved= 1 IEnMin= 1 EnMin=-0.147217300508572     IErMin= 1 ErrMin= 2.84D-04
 ErrMax= 2.84D-04 EMaxC= 1.00D-01 BMatC= 3.95D-06 BMatP= 3.95D-06
 IDIUse=3 WtCom= 9.97D-01 WtEn= 2.84D-03
 Coeff-Com:  0.100D+01
 Coeff-En:   0.100D+01
 Coeff:      0.100D+01
 RMSDP=1.40D-04 MaxDP=6.84D-04              OVMax= 0.00D+00

 Cycle   2  Pass 1  IDiag  3:
 E=-0.147228295646301     Delta-E=       -0.000010995138 Rises=F Damp=F
 DIIS: error= 1.02D-04 at cycle   2 NSaved=   2.
 NSaved= 2 IEnMin= 2 EnMin=-0.147228295646301     IErMin= 2 ErrMin= 1.02D-04
 ErrMax= 1.02D-04 EMaxC= 1.00D-01 BMatC= 3.77D-07 BMatP= 3.95D-06
 IDIUse=3 WtCom= 9.99D-01 WtEn= 1.02D-03
 Coeff-Com: -0.389D+00 0.139D+01
 Coeff-En:   0.000D+00 0.100D+01
 Coeff:     -0.388D+00 0.139D+01
 Gap=     0.458 Goal=   None    Shift=    0.000
 RMSDP=6.82D-05 MaxDP=3.77D-04 DE=-1.10D-05 OVMax= 0.00D+00

 Cycle   3  Pass 1  IDiag  3:
 E=-0.147229723695659     Delta-E=       -0.000001428049 Rises=F Damp=F
 DIIS: error= 1.76D-05 at cycle   3 NSaved=   3.
 NSaved= 3 IEnMin= 3 EnMin=-0.147229723695659     IErMin= 3 ErrMin= 1.76D-05
 ErrMax= 1.76D-05 EMaxC= 1.00D-01 BMatC= 1.07D-08 BMatP= 3.77D-07
 IDIUse=1 WtCom= 1.00D+00 WtEn= 0.00D+00
 Coeff-Com:  0.172D+00-0.687D+00 0.151D+01
 Coeff:      0.172D+00-0.687D+00 0.151D+01
 Gap=     0.458 Goal=   None    Shift=    0.000
 RMSDP=1.57D-05 MaxDP=8.44D-05 DE=-1.43D-06 OVMax= 0.00D+00

 Cycle   4  Pass 1  IDiag  3:
 E=-0.147229778845144     Delta-E=       -0.000000055149 Rises=F Damp=F
 DIIS: error= 3.96D-06 at cycle   4 NSaved=   4.
 NSaved= 4 IEnMin= 4 EnMin=-0.147229778845144     IErMin= 4 ErrMin= 3.96D-06
 ErrMax= 3.96D-06 EMaxC= 1.00D-01 BMatC= 4.38D-10 BMatP= 1.07D-08
 IDIUse=1 WtCom= 1.00D+00 WtEn= 0.00D+00
 Coeff-Com: -0.119D+00 0.481D+00-0.113D+01 0.177D+01
 Coeff:     -0.119D+00 0.481D+00-0.113D+01 0.177D+01
 Gap=     0.458 Goal=   None    Shift=    0.000
 RMSDP=3.91D-06 MaxDP=2.97D-05 DE=-5.51D-08 OVMax= 0.00D+00

 Cycle   5  Pass 1  IDiag  3:
 E=-0.147229781650822     Delta-E=       -0.000000002806 Rises=F Damp=F
 DIIS: error= 6.63D-07 at cycle   5 NSaved=   5.
 NSaved= 5 IEnMin= 5 EnMin=-0.147229781650822     IErMin= 5 ErrMin= 6.63D-07
 ErrMax= 6.63D-07 EMaxC= 1.00D-01 BMatC= 1.48D-11 BMatP= 4.38D-10
 IDIUse=1 WtCom= 1.00D+00 WtEn= 0.00D+00
 Coeff-Com:  0.455D-01-0.184D+00 0.436D+00-0.798D+00 0.150D+01
 Coeff:      0.455D-01-0.184D+00 0.436D+00-0.798D+00 0.150D+01
 Gap=     0.458 Goal=   None    Shift=    0.000
 RMSDP=7.19D-07 MaxDP=4.34D-06 DE=-2.81D-09 OVMax= 0.00D+00

 Cycle   6  Pass 1  IDiag  3:
 E=-0.147229781739654     Delta-E=       -0.000000000089 Rises=F Damp=F
 DIIS: error= 1.02D-07 at cycle   6 NSaved=   6.
 NSaved= 6 IEnMin= 6 EnMin=-0.147229781739654     IErMin= 6 ErrMin= 1.02D-07
 ErrMax= 1.02D-07 EMaxC= 1.00D-01 BMatC= 3.37D-13 BMatP= 1.48D-11
 IDIUse=1 WtCom= 1.00D+00 WtEn= 0.00D+00
 Coeff-Com: -0.201D-01 0.812D-01-0.193D+00 0.359D+00-0.743D+00 0.152D+01
 Coeff:     -0.201D-01 0.812D-01-0.193D+00 0.359D+00-0.743D+00 0.152D+01
 Gap=     0.458 Goal=   None    Shift=    0.000
 RMSDP=9.56D-08 MaxDP=5.92D-07 DE=-8.88D-11 OVMax= 0.00D+00

 Cycle   7  Pass 1  IDiag  3:
 E=-0.147229781741558     Delta-E=       -0.000000000002 Rises=F Damp=F
 DIIS: error= 3.04D-08 at cycle   7 NSaved=   7.
 NSaved= 7 IEnMin= 7 EnMin=-0.147229781741558     IErMin= 7 ErrMin= 3.04D-08
 ErrMax= 3.04D-08 EMaxC= 1.00D-01 BMatC= 2.15D-14 BMatP= 3.37D-13
[...]
 Iteration 70 RMS(Cart)=  0.00000867 RMS(Int)=  0.01597372
 Iteration 71 RMS(Cart)=  0.00000865 RMS(Int)=  0.01596386
 Iteration 72 RMS(Cart)=  0.00000863 RMS(Int)=  0.01595402
 Iteration 73 RMS(Cart)=  0.00000861 RMS(Int)=  0.01594420
 Iteration 74 RMS(Cart)=  0.00000859 RMS(Int)=  0.01593440
 Iteration 75 RMS(Cart)=  0.00000857 RMS(Int)=  0.01592462
 Iteration 76 RMS(Cart)=  0.00000856 RMS(Int)=  0.01591487
 Iteration 77 RMS(Cart)=  0.00000854 RMS(Int)=  0.01590514
 Iteration 78 RMS(Cart)=  0.00000852 RMS(Int)=  0.01589543
 Iteration 79 RMS(Cart)=  0.00000850 RMS(Int)=  0.01588574
 Iteration 80 RMS(Cart)=  0.00000848 RMS(Int)=  0.01587608
 Iteration 81 RMS(Cart)=  0.00000846 RMS(Int)=  0.01586644
 Iteration 82 RMS(Cart)=  0.00000844 RMS(Int)=  0.01585682
 Iteration 83 RMS(Cart)=  0.00000842 RMS(Int)=  0.01584722
 Iteration 84 RMS(Cart)=  0.00000840 RMS(Int)=  0.01583764
 Iteration 85 RMS(Cart)=  0.00000838 RMS(Int)=  0.01582808
 Iteration 86 RMS(Cart)=  0.00000836 RMS(Int)=  0.01581855
 Iteration 87 RMS(Cart)=  0.00000834 RMS(Int)=  0.01580903
 Iteration 88 RMS(Cart)=  0.00000833 RMS(Int)=  0.01579954
 Iteration 89 RMS(Cart)=  0.00000831 RMS(Int)=  0.01579007
 Iteration 90 RMS(Cart)=  0.00000829 RMS(Int)=  0.01578062
 Iteration 91 RMS(Cart)=  0.00000827 RMS(Int)=  0.01577119
 Iteration 92 RMS(Cart)=  0.00000825 RMS(Int)=  0.01576178
 Iteration 93 RMS(Cart)=  0.00000823 RMS(Int)=  0.01575240
 Iteration 94 RMS(Cart)=  0.00000821 RMS(Int)=  0.01574303
 Iteration 95 RMS(Cart)=  0.00000820 RMS(Int)=  0.01573369
 Iteration 96 RMS(Cart)=  0.00000818 RMS(Int)=  0.01572436
 Iteration 97 RMS(Cart)=  0.00000816 RMS(Int)=  0.01571506
 Iteration 98 RMS(Cart)=  0.00000814 RMS(Int)=  0.01570578
 Iteration 99 RMS(Cart)=  0.00000812 RMS(Int)=  0.01569651
 Iteration100 RMS(Cart)=  0.00000811 RMS(Int)=  0.01568727
 New curvilinear step not converged.
 Iteration  1 RMS(Cart)=  0.00083891 RMS(Int)=  0.00830379
 Iteration  2 RMS(Cart)=  0.00000108 RMS(Int)=  0.00830260
 Iteration  3 RMS(Cart)=  0.00000108 RMS(Int)=  0.00830141
 Iteration  4 RMS(Cart)=  0.00000108 RMS(Int)=  0.00830023
 Iteration  5 RMS(Cart)=  0.00000108 RMS(Int)=  0.00829904
 Iteration  6 RMS(Cart)=  0.00000108 RMS(Int)=  0.00829785
 Iteration  7 RMS(Cart)=  0.00000108 RMS(Int)=  0.00829666
 Iteration  8 RMS(Cart)=  0.00000108 RMS(Int)=  0.00829548
 Iteration  9 RMS(Cart)=  0.00000108 RMS(Int)=  0.00829429
 Iteration 10 RMS(Cart)=  0.00000108 RMS(Int)=  0.00829311
 Iteration 11 RMS(Cart)=  0.00000108 RMS(Int)=  0.00829192
 Iteration 12 RMS(Cart)=  0.00000107 RMS(Int)=  0.00829074
 Iteration 13 RMS(Cart)=  0.00000107 RMS(Int)=  0.00828956
 Iteration 14 RMS(Cart)=  0.00000107 RMS(Int)=  0.00828838
 Iteration 15 RMS(Cart)=  0.00000107 RMS(Int)=  0.00828719
 Iteration 16 RMS(Cart)=  0.00000107 RMS(Int)=  0.00828601
 Iteration 17 RMS(Cart)=  0.00000107 RMS(Int)=  0.00828483
 Iteration 18 RMS(Cart)=  0.00000107 RMS(Int)=  0.00828365
 Iteration 19 RMS(Cart)=  0.00000107 RMS(Int)=  0.00828248
 Iteration 20 RMS(Cart)=  0.00000107 RMS(Int)=  0.00828130
 Iteration 21 RMS(Cart)=  0.00000107 RMS(Int)=  0.00828012
 Iteration 22 RMS(Cart)=  0.00000107 RMS(Int)=  0.00827894
 Iteration 23 RMS(Cart)=  0.00000107 RMS(Int)=  0.00827777
 Iteration 24 RMS(Cart)=  0.00000107 RMS(Int)=  0.00827659
 Iteration 25 RMS(Cart)=  0.00000107 RMS(Int)=  0.00827542
 Iteration 26 RMS(Cart)=  0.00000107 RMS(Int)=  0.00827424
 Iteration 27 RMS(Cart)=  0.00000107 RMS(Int)=  0.00827307
 Iteration 28 RMS(Cart)=  0.00000107 RMS(Int)=  0.00827190
 Iteration 29 RMS(Cart)=  0.00000106 RMS(Int)=  0.00827073
 Iteration 30 RMS(Cart)=  0.00000106 RMS(Int)=  0.00826955
 Iteration 31 RMS(Cart)=  0.00000106 RMS(Int)=  0.00826838
 Iteration 32 RMS(Cart)=  0.00000106 RMS(Int)=  0.00826721
 Iteration 33 RMS(Cart)=  0.00000106 RMS(Int)=  0.00826604
 Iteration 34 RMS(Cart)=  0.00000106 RMS(Int)=  0.00826488
 Iteration 35 RMS(Cart)=  0.00000106 RMS(Int)=  0.00826371
 Iteration 36 RMS(Cart)=  0.00000106 RMS(Int)=  0.00826254
 Iteration 37 RMS(Cart)=  0.00000106 RMS(Int)=  0.00826137
 Iteration 38 RMS(Cart)=  0.00000106 RMS(Int)=  0.00826021
 Iteration 39 RMS(Cart)=  0.00000106 RMS(Int)=  0.00825904
 Iteration 40 RMS(Cart)=  0.00000106 RMS(Int)=  0.00825788
 Iteration 41 RMS(Cart)=  0.00000106 RMS(Int)=  0.00825671
 Iteration 42 RMS(Cart)=  0.00000106 RMS(Int)=  0.00825555
 Iteration 43 RMS(Cart)=  0.00000106 RMS(Int)=  0.00825439
 Iteration 44 RMS(Cart)=  0.00000106 RMS(Int)=  0.00825322
 Iteration 45 RMS(Cart)=  0.00000105 RMS(Int)=  0.00825206
 Iteration 46 RMS(Cart)=  0.00000105 RMS(Int)=  0.00825090
 Iteration 47 RMS(Cart)=  0.00000105 RMS(Int)=  0.00824974
 Iteration 48 RMS(Cart)=  0.00000105 RMS(Int)=  0.00824858
 Iteration 49 RMS(Cart)=  0.00000105 RMS(Int)=  0.00824742
 Iteration 50 RMS(Cart)=  0.00000105 RMS(Int)=  0.00824626
 Iteration 51 RMS(Cart)=  0.00000105 RMS(Int)=  0.00824511
 Iteration 52 RMS(Cart)=  0.00000105 RMS(Int)=  0.00824395
 Iteration 53 RMS(Cart)=  0.00000105 RMS(Int)=  0.00824279
 Iteration 54 RMS(Cart)=  0.00000105 RMS(Int)=  0.00824164
 Iteration 55 RMS(Cart)=  0.00000105 RMS(Int)=  0.00824048
 Iteration 56 RMS(Cart)=  0.00000105 RMS(Int)=  0.00823933
 Iteration 57 RMS(Cart)=  0.00000105 RMS(Int)=  0.00823817
 Iteration 58 RMS(Cart)=  0.00000105 RMS(Int)=  0.00823702
 Iteration 59 RMS(Cart)=  0.00000105 RMS(Int)=  0.00823587
 Iteration 60 RMS(Cart)=  0.00000105 RMS(Int)=  0.00823472
 Iteration 61 RMS(Cart)=  0.00000105 RMS(Int)=  0.00823357
 Iteration 62 RMS(Cart)=  0.00000104 RMS(Int)=  0.00823241
 Iteration 63 RMS(Cart)=  0.00000104 RMS(Int)=  0.00823126
 Iteration 64 RMS(Cart)=  0.00000104 RMS(Int)=  0.00823012
 Iteration 65 RMS(Cart)=  0.00000104 RMS(Int)=  0.00822897
 Iteration 66 RMS(Cart)=  0.00000104 RMS(Int)=  0.00822782
 Iteration 67 RMS(Cart)=  0.00000104 RMS(Int)=  0.00822667
 Iteration 68 RMS(Cart)=  0.00000104 RMS(Int)=  0.00822552
 Iteration 69 RMS(Cart)=  0.00000104 RMS(Int)=  0.00822438
 Iteration 70 RMS(Cart)=  0.00000104 RMS(Int)=  0.00822323
 Iteration 71 RMS(Cart)=  0.00000104 RMS(Int)=  0.00822209
 Iteration 72 RMS(Cart)=  0.00000104 RMS(Int)=  0.00822094
 Iteration 73 RMS(Cart)=  0.00000104 RMS(Int)=  0.00821980
 Iteration 74 RMS(Cart)=  0.00000104 RMS(Int)=  0.00821866
 Iteration 75 RMS(Cart)=  0.00000104 RMS(Int)=  0.00821751
 Iteration 76 RMS(Cart)=  0.00000104 RMS(Int)=  0.00821637
 Iteration 77 RMS(Cart)=  0.00000104 RMS(Int)=  0.00821523
 Iteration 78 RMS(Cart)=  0.00000104 RMS(Int)=  0.00821409
 Iteration 79 RMS(Cart)=  0.00000104 RMS(Int)=  0.00821295
 Iteration 80 RMS(Cart)=  0.00000103 RMS(Int)=  0.00821181
 Iteration 81 RMS(Cart)=  0.00000103 RMS(Int)=  0.00821067
 Iteration 82 RMS(Cart)=  0.00000103 RMS(Int)=  0.00820954
 Iteration 83 RMS(Cart)=  0.00000103 RMS(Int)=  0.00820840
 Iteration 84 RMS(Cart)=  0.00000103 RMS(Int)=  0.00820726
 Iteration 85 RMS(Cart)=  0.00000103 RMS(Int)=  0.00820613
 Iteration 86 RMS(Cart)=  0.00000103 RMS(Int)=  0.00820499
 Iteration 87 RMS(Cart)=  0.00000103 RMS(Int)=  0.00820385
 Iteration 88 RMS(Cart)=  0.00000103 RMS(Int)=  0.00820272
 Iteration 89 RMS(Cart)=  0.00000103 RMS(Int)=  0.00820159
 Iteration 90 RMS(Cart)=  0.00000103 RMS(Int)=  0.00820045
 Iteration 91 RMS(Cart)=  0.00000103 RMS(Int)=  0.00819932
 Iteration 92 RMS(Cart)=  0.00000103 RMS(Int)=  0.00819819
 Iteration 93 RMS(Cart)=  0.00000103 RMS(Int)=  0.00819706
 Iteration 94 RMS(Cart)=  0.00000103 RMS(Int)=  0.00819593
 Iteration 95 RMS(Cart)=  0.00000103 RMS(Int)=  0.00819480
 Iteration 96 RMS(Cart)=  0.00000103 RMS(Int)=  0.00819367
 Iteration 97 RMS(Cart)=  0.00000102 RMS(Int)=  0.00819254
 Iteration 98 RMS(Cart)=  0.00000102 RMS(Int)=  0.00819141
 Iteration 99 RMS(Cart)=  0.00000102 RMS(Int)=  0.00819028
 Iteration100 RMS(Cart)=  0.00000102 RMS(Int)=  0.00818916
 New curvilinear step not converged.
 Iteration  1 RMS(Cart)=  0.08954882 RMS(Int)=  0.49121234
 Iteration  2 RMS(Cart)=  0.01817358 RMS(Int)=  0.48441086
 Iteration  3 RMS(Cart)=  0.01214113 RMS(Int)=  0.49156704
 Iteration  4 RMS(Cart)=  0.01260292 RMS(Int)=  0.48373011
 Iteration  5 RMS(Cart)=  0.01261949 RMS(Int)=  0.49206161
 Iteration  6 RMS(Cart)=  0.01281037 RMS(Int)=  0.48319872
 Iteration  7 RMS(Cart)=  0.01256588 RMS(Int)=  0.49262361
 Iteration  8 RMS(Cart)=  0.01281613 RMS(Int)=  0.48259483
 Iteration  9 RMS(Cart)=  0.01255218 RMS(Int)=  0.49326035
 Iteration 10 RMS(Cart)=  0.01283292 RMS(Int)=  0.48191152
 Iteration 11 RMS(Cart)=  0.01253360 RMS(Int)=  0.49398216
 Iteration 12 RMS(Cart)=  0.01285156 RMS(Int)=  0.48113827
 Iteration 13 RMS(Cart)=  0.01251277 RMS(Int)=  0.49480060
 Iteration 14 RMS(Cart)=  0.01287271 RMS(Int)=  0.48026324
 Iteration 15 RMS(Cart)=  0.01248919 RMS(Int)=  0.49572885
 Iteration 16 RMS(Cart)=  0.01289671 RMS(Int)=  0.47927306
 Iteration 17 RMS(Cart)=  0.01246250 RMS(Int)=  0.49678192
 Iteration 18 RMS(Cart)=  0.01292395 RMS(Int)=  0.47815262
 Iteration 19 RMS(Cart)=  0.01243231 RMS(Int)=  0.49797692
 Iteration 20 RMS(Cart)=  0.01295486 RMS(Int)=  0.47688491
 Iteration 21 RMS(Cart)=  0.01239814 RMS(Int)=  0.49933335
 Iteration 22 RMS(Cart)=  0.01298996 RMS(Int)=  0.47545075
 Iteration 23 RMS(Cart)=  0.01235949 RMS(Int)=  0.50087343
 Iteration 24 RMS(Cart)=  0.01302984 RMS(Int)=  0.47382867
 Iteration 25 RMS(Cart)=  0.01231578 RMS(Int)=  0.50262241
 Iteration 26 RMS(Cart)=  0.01307514 RMS(Int)=  0.47199460
 Iteration 27 RMS(Cart)=  0.01226635 RMS(Int)=  0.50151367
 Iteration 28 RMS(Cart)=  0.01330085 RMS(Int)=  0.47314758
 Iteration 29 RMS(Cart)=  0.01233516 RMS(Int)=  0.50209450
 Iteration 30 RMS(Cart)=  0.01330578 RMS(Int)=  0.47190726
 Iteration 31 RMS(Cart)=  0.01228477 RMS(Int)=  0.50139451
 Iteration 32 RMS(Cart)=  0.01330466 RMS(Int)=  0.47326190
 Iteration 33 RMS(Cart)=  0.01233998 RMS(Int)=  0.50222324
 Iteration 34 RMS(Cart)=  0.01330971 RMS(Int)=  0.47176999
 Iteration 35 RMS(Cart)=  0.01228111 RMS(Int)=  0.50124551
 Iteration 36 RMS(Cart)=  0.01330083 RMS(Int)=  0.47340794
 Iteration 37 RMS(Cart)=  0.01234368 RMS(Int)=  0.50238763
 Iteration 38 RMS(Cart)=  0.01331413 RMS(Int)=  0.47159478
 Iteration 39 RMS(Cart)=  0.01227633 RMS(Int)=  0.50105524
 Iteration 40 RMS(Cart)=  0.01329591 RMS(Int)=  0.47359451
 Iteration 41 RMS(Cart)=  0.01234839 RMS(Int)=  0.50259756
 Iteration 42 RMS(Cart)=  0.01331977 RMS(Int)=  0.47137114
 Iteration 43 RMS(Cart)=  0.01227023 RMS(Int)=  0.50081227
 Iteration 44 RMS(Cart)=  0.01328962 RMS(Int)=  0.47383290
 Iteration 45 RMS(Cart)=  0.01235442 RMS(Int)=  0.50286568
 Iteration 46 RMS(Cart)=  0.01332697 RMS(Int)=  0.47108569
 Iteration 47 RMS(Cart)=  0.01226244 RMS(Int)=  0.50050193
 Iteration 48 RMS(Cart)=  0.01328159 RMS(Int)=  0.47413761
 Iteration 49 RMS(Cart)=  0.01236212 RMS(Int)=  0.50291357
 Iteration 50 RMS(Cart)=  0.01309343 RMS(Int)=  0.47241418
 Iteration 51 RMS(Cart)=  0.01229444 RMS(Int)=  0.50127313
 Iteration 52 RMS(Cart)=  0.01327714 RMS(Int)=  0.47278579
 Iteration 53 RMS(Cart)=  0.01230677 RMS(Int)=  0.50234710
 Iteration 54 RMS(Cart)=  0.01332886 RMS(Int)=  0.47232962
 Iteration 55 RMS(Cart)=  0.01231635 RMS(Int)=  0.50117264
 Iteration 56 RMS(Cart)=  0.01328145 RMS(Int)=  0.47289154
 Iteration 57 RMS(Cart)=  0.01231170 RMS(Int)=  0.50246141
 Iteration 58 RMS(Cart)=  0.01333231 RMS(Int)=  0.47221790
 Iteration 59 RMS(Cart)=  0.01231362 RMS(Int)=  0.50104661
 Iteration 60 RMS(Cart)=  0.01327810 RMS(Int)=  0.47302629
 Iteration 61 RMS(Cart)=  0.01231538 RMS(Int)=  0.50260727
 Iteration 62 RMS(Cart)=  0.01333608 RMS(Int)=  0.47207541
 Iteration 63 RMS(Cart)=  0.01231002 RMS(Int)=  0.50088581
 Iteration 64 RMS(Cart)=  0.01327378 RMS(Int)=  0.47319828
 Iteration 65 RMS(Cart)=  0.01232007 RMS(Int)=  0.50279335
 Iteration 66 RMS(Cart)=  0.01334090 RMS(Int)=  0.47189370
 Iteration 67 RMS(Cart)=  0.01230543 RMS(Int)=  0.50068068
 Iteration 68 RMS(Cart)=  0.01326827 RMS(Int)=  0.47341778
 Iteration 69 RMS(Cart)=  0.01232606 RMS(Int)=  0.50303074
 Iteration 70 RMS(Cart)=  0.01334705 RMS(Int)=  0.47166202
 Iteration 71 RMS(Cart)=  0.01229958 RMS(Int)=  0.50041904
 Iteration 72 RMS(Cart)=  0.01326124 RMS(Int)=  0.47369793
 Iteration 73 RMS(Cart)=  0.01233370 RMS(Int)=  0.50278753
 Iteration 74 RMS(Cart)=  0.01307294 RMS(Int)=  0.47182411
 Iteration 75 RMS(Cart)=  0.01225983 RMS(Int)=  0.50132891
 Iteration 76 RMS(Cart)=  0.01329560 RMS(Int)=  0.47332864
 Iteration 77 RMS(Cart)=  0.01233965 RMS(Int)=  0.50229835
 Iteration 78 RMS(Cart)=  0.01331123 RMS(Int)=  0.47168993
 Iteration 79 RMS(Cart)=  0.01227884 RMS(Int)=  0.50115858
 Iteration 80 RMS(Cart)=  0.01329855 RMS(Int)=  0.47349316
 Iteration 81 RMS(Cart)=  0.01234583 RMS(Int)=  0.50248353
 Iteration 82 RMS(Cart)=  0.01331670 RMS(Int)=  0.47149260
 Iteration 83 RMS(Cart)=  0.01227354 RMS(Int)=  0.50094424
 Iteration 84 RMS(Cart)=  0.01329304 RMS(Int)=  0.47370340
 Iteration 85 RMS(Cart)=  0.01235114 RMS(Int)=  0.50272004
 Iteration 86 RMS(Cart)=  0.01332306 RMS(Int)=  0.47124071
 Iteration 87 RMS(Cart)=  0.01226667 RMS(Int)=  0.50067050
 Iteration 88 RMS(Cart)=  0.01328595 RMS(Int)=  0.47397207
 Iteration 89 RMS(Cart)=  0.01235793 RMS(Int)=  0.50302214
 Iteration 90 RMS(Cart)=  0.01333118 RMS(Int)=  0.47091921
 Iteration 91 RMS(Cart)=  0.01225790 RMS(Int)=  0.50032084
 Iteration 92 RMS(Cart)=  0.01327690 RMS(Int)=  0.47431554
 Iteration 93 RMS(Cart)=  0.01236662 RMS(Int)=  0.50271386
 Iteration 94 RMS(Cart)=  0.01308804 RMS(Int)=  0.47261336
 Iteration 95 RMS(Cart)=  0.01229955 RMS(Int)=  0.50149778
 Iteration 96 RMS(Cart)=  0.01328316 RMS(Int)=  0.47254579
 Iteration 97 RMS(Cart)=  0.01230023 RMS(Int)=  0.50208713
 Iteration 98 RMS(Cart)=  0.01332213 RMS(Int)=  0.47258381
 Iteration 99 RMS(Cart)=  0.01232277 RMS(Int)=  0.50145930
 Iteration100 RMS(Cart)=  0.01328915 RMS(Int)=  0.47258521
 Old curvilinear step not converged, using linear step
 Iteration  1 RMS(Cart)=  0.01289395 RMS(Int)=  0.52253499
 Iteration  2 RMS(Cart)=  0.01371708 RMS(Int)=  0.55506932
 Iteration  3 RMS(Cart)=  0.01456975 RMS(Int)=  0.58595122
 Iteration  4 RMS(Cart)=  0.01537806 RMS(Int)=  0.61295861
 Iteration  5 RMS(Cart)=  0.01608358 RMS(Int)=  0.63519929
 Iteration  6 RMS(Cart)=  0.01666277 RMS(Int)=  0.65288467
 Iteration  7 RMS(Cart)=  0.01712105 RMS(Int)=  0.66673230
 Iteration  8 RMS(Cart)=  0.01747714 RMS(Int)=  0.67753472
 Iteration  9 RMS(Cart)=  0.01775171 RMS(Int)=  0.68597484
 Iteration 10 RMS(Cart)=  0.01796257 RMS(Int)=  0.69258528
 Iteration 11 RMS(Cart)=  0.01812354 RMS(Int)=  0.69776369
 Iteration 12 RMS(Cart)=  0.01824490 RMS(Int)=  0.70180117
 Iteration 13 RMS(Cart)=  0.01833409 RMS(Int)=  0.70490873
 Iteration 14 RMS(Cart)=  0.01839641 RMS(Int)=  0.70723789
 Iteration 15 RMS(Cart)=  0.01843554 RMS(Int)=  0.70889572
 Iteration 16 RMS(Cart)=  0.01845390 RMS(Int)=  0.70995555
 Iteration 17 RMS(Cart)=  0.01845296 RMS(Int)=  0.71046447
 Iteration 18 RMS(Cart)=  0.01843329 RMS(Int)=  0.71044873
 Iteration 19 RMS(Cart)=  0.01839477 RMS(Int)=  0.70991787
 Iteration 20 RMS(Cart)=  0.01833649 RMS(Int)=  0.70886851
 Iteration 21 RMS(Cart)=  0.01825681 RMS(Int)=  0.70728866
 Iteration 22 RMS(Cart)=  0.01815322 RMS(Int)=  0.70516411
 Iteration 23 RMS(Cart)=  0.01802223 RMS(Int)=  0.70248918
 Iteration 24 RMS(Cart)=  0.01785921 RMS(Int)=  0.69928533
 Iteration 25 RMS(Cart)=  0.01765822 RMS(Int)=  0.69563305
 Iteration 26 RMS(Cart)=  0.01741190 RMS(Int)=  0.69172353
 Iteration 27 RMS(Cart)=  0.01711162 RMS(Int)=  0.68793374
 Iteration 28 RMS(Cart)=  0.01674819 RMS(Int)=  0.68491327
 Iteration 29 RMS(Cart)=  0.01631360 RMS(Int)=  0.68363135
 Iteration 30 RMS(Cart)=  0.01580430 RMS(Int)=  0.68527567
 Iteration 31 RMS(Cart)=  0.01522581 RMS(Int)=  0.69089758
 Iteration 32 RMS(Cart)=  0.01459646 RMS(Int)=  0.70089226
 Iteration 33 RMS(Cart)=  0.01394661 RMS(Int)=  0.71469426
 Iteration 34 RMS(Cart)=  0.01331117 RMS(Int)=  0.73100301
 Iteration 35 RMS(Cart)=  0.01271939 RMS(Int)=  0.74835110
 Iteration 36 RMS(Cart)=  0.01218851 RMS(Int)=  0.76556343
 Iteration 37 RMS(Cart)=  0.01172383 RMS(Int)=  0.78190682
 Iteration 38 RMS(Cart)=  0.01132252 RMS(Int)=  0.79702568
 Iteration 39 RMS(Cart)=  0.01097777 RMS(Int)=  0.81081434
 Iteration 40 RMS(Cart)=  0.01068158 RMS(Int)=  0.82330696
 Iteration 41 RMS(Cart)=  0.01042626 RMS(Int)=  0.83460431
 Iteration 42 RMS(Cart)=  0.01020506 RMS(Int)=  0.84483144
 Iteration 43 RMS(Cart)=  0.01001227 RMS(Int)=  0.85411550
 Iteration 44 RMS(Cart)=  0.00984321 RMS(Int)=  0.86257532
 Iteration 45 RMS(Cart)=  0.00969403 RMS(Int)=  0.87031739
 Iteration 46 RMS(Cart)=  0.00956163 RMS(Int)=  0.87743498
 Iteration 47 RMS(Cart)=  0.00944345 RMS(Int)=  0.88400880
 Iteration 48 RMS(Cart)=  0.00933741 RMS(Int)=  0.89010830
 Iteration 49 RMS(Cart)=  0.00924178 RMS(Int)=  0.89579310
 Iteration 50 RMS(Cart)=  0.00915517 RMS(Int)=  0.90111439
 Iteration 51 RMS(Cart)=  0.00907638 RMS(Int)=  0.90611617
 Iteration 52 RMS(Cart)=  0.00900442 RMS(Int)=  0.91083639
 Iteration 53 RMS(Cart)=  0.00893847 RMS(Int)=  0.91530785
 Iteration 54 RMS(Cart)=  0.00887781 RMS(Int)=  0.91955900
 Iteration 55 RMS(Cart)=  0.00882185 RMS(Int)=  0.92361460
 Iteration 56 RMS(Cart)=  0.00877007 RMS(Int)=  0.92749630
 Iteration 57 RMS(Cart)=  0.00872204 RMS(Int)=  0.93122305
 Iteration 58 RMS(Cart)=  0.00867735 RMS(Int)=  0.93481154
 Iteration 59 RMS(Cart)=  0.00863569 RMS(Int)=  0.93827650
 Iteration 60 RMS(Cart)=  0.00859675 RMS(Int)=  0.94163098
 Iteration 61 RMS(Cart)=  0.00856029 RMS(Int)=  0.94488656
 Iteration 62 RMS(Cart)=  0.00852608 RMS(Int)=  0.94805356
 Iteration 63 RMS(Cart)=  0.00849392 RMS(Int)=  0.95114123
 Iteration 64 RMS(Cart)=  0.00846363 RMS(Int)=  0.95415784
 Iteration 65 RMS(Cart)=  0.00843506 RMS(Int)=  0.95711082
 Iteration 66 RMS(Cart)=  0.00840807 RMS(Int)=  0.96000687
 Iteration 67 RMS(Cart)=  0.00838253 RMS(Int)=  0.96285205
 Iteration 68 RMS(Cart)=  0.00835834 RMS(Int)=  0.96565185
 Iteration 69 RMS(Cart)=  0.00833538 RMS(Int)=  0.96841122
 Iteration 70 RMS(Cart)=  0.00831356 RMS(Int)=  0.97113471
 Iteration 71 RMS(Cart)=  0.00829282 RMS(Int)=  0.97382643
 Iteration 72 RMS(Cart)=  0.00827306 RMS(Int)=  0.97649014
 Iteration 73 RMS(Cart)=  0.00825422 RMS(Int)=  0.97912928
 Iteration 74 RMS(Cart)=  0.00823625 RMS(Int)=  0.98174702
 Iteration 75 RMS(Cart)=  0.00821907 RMS(Int)=  0.98434624
 Iteration 76 RMS(Cart)=  0.00820265 RMS(Int)=  0.98692960
 Iteration 77 RMS(Cart)=  0.00818692 RMS(Int)=  0.98949957
 Iteration 78 RMS(Cart)=  0.00817186 RMS(Int)=  0.99205838
 Iteration 79 RMS(Cart)=  0.00815742 RMS(Int)=  0.99460813
 Iteration 80 RMS(Cart)=  0.00814355 RMS(Int)=  0.99715075
 Iteration 81 RMS(Cart)=  0.00813024 RMS(Int)=  0.99968801
 Iteration 82 RMS(Cart)=  0.00811744 RMS(Int)=  1.00222157
 Iteration 83 RMS(Cart)=  0.00810513 RMS(Int)=  1.00475296
 Iteration 84 RMS(Cart)=  0.00809327 RMS(Int)=  1.00728359
 Iteration 85 RMS(Cart)=  0.00808185 RMS(Int)=  1.00981479
 Iteration 86 RMS(Cart)=  0.00807084 RMS(Int)=  1.01234779
 Iteration 87 RMS(Cart)=  0.00806022 RMS(Int)=  1.01488373
 Iteration 88 RMS(Cart)=  0.00804997 RMS(Int)=  1.01742366
 Iteration 89 RMS(Cart)=  0.00804007 RMS(Int)=  1.01996859
 Iteration 90 RMS(Cart)=  0.00803050 RMS(Int)=  1.02251943
 Iteration 91 RMS(Cart)=  0.00802124 RMS(Int)=  1.02507704
 Iteration 92 RMS(Cart)=  0.00801229 RMS(Int)=  1.02764223
 Iteration 93 RMS(Cart)=  0.00800361 RMS(Int)=  1.03021575
 Iteration 94 RMS(Cart)=  0.00799521 RMS(Int)=  1.03279829
 Iteration 95 RMS(Cart)=  0.00798707 RMS(Int)=  1.03539051
 Iteration 96 RMS(Cart)=  0.00797918 RMS(Int)=  1.03799303
 Iteration 97 RMS(Cart)=  0.00797152 RMS(Int)=  1.04060640
 Iteration 98 RMS(Cart)=  0.00796408 RMS(Int)=  1.04323117
 Iteration 99 RMS(Cart)=  0.00795686 RMS(Int)=  1.04586783
 Iteration100 RMS(Cart)=  0.00794984 RMS(Int)=  1.04851685
 Old curvilinear step not converged, using linear step
 Error imposing constraints
 Error termination via Lnk1e in /home/dgomes/software//g09/l103.exe at Wed Feb 19 11:31:34 2020.
 Job cpu time:  0 days  0 hours  1 minutes  0.3 seconds.
 File lengths (MBytes):  RWF=      5 Int=      0 D2E=      0 Chk=      4 Scr=      1
