 Entering Gaussian System, Link 0=g09
 Input=ligand.gau
 Output=ligand.log
 Initial command:
 /home/dgomes/software//g09/l1.exe /tmp/Gau-32342.inp -scrdir=/tmp/
 Entering Link 1 = /home/dgomes/software//g09/l1.exe PID=     32344.
  
 Copyright (c) 1988,1990,1992,1993,1995,1998,2003,2009, Gaussian, Inc.
                  All Rights Reserved.
  
 This is part of the Gaussian(R) 09 program.  It is based on
 the Gaussian(R) 03 system (copyright 2003, Gaussian, Inc.),
 the Gaussian(R) 98 system (copyright 1998, Gaussian, Inc.),
 the Gaussian(R) 94 system (copyright 1995, Gaussian, Inc.),
 the Gaussian 92(TM) system (copyright 1992, Gaussian, Inc.),
 the Gaussian 90(TM) system (copyright 1990, Gaussian, Inc.),
 the Gaussian 88(TM) system (copyright 1988, Gaussian, Inc.),
 the Gaussian 86(TM) system (copyright 1986, Carnegie Mellon
 University), and the Gaussian 82(TM) system (copyright 1983,
 Carnegie Mellon University). Gaussian is a federally registered
 trademark of Gaussian, Inc.
  
 This software contains proprietary and confidential information,
 including trade secrets, belonging to Gaussian, Inc.
  
 This software is provided under written license and may be
 used, copied, transmitted, or stored only in accord with that
 written license.
  
 The following legend is applicable only to US Government
 contracts under FAR:
  
                    RESTRICTED RIGHTS LEGEND
  
 Use, reproduction and disclosure by the US Government is
 subject to restrictions as set forth in subparagraphs (a)
 and (c) of the Commercial Computer Software - Restricted
 Rights clause in FAR 52.227-19.
  
 Gaussian, Inc.
 340 Quinnipiac St., Bldg. 40, Wallingford CT 06492
  
  
 ---------------------------------------------------------------
 Warning -- This program may not be used in any manner that
 competes with the business of Gaussian, Inc. or will provide
 assistance to any competitor of Gaussian, Inc.  The licensee
 of this program is prohibited from giving any competitor of
 Gaussian, Inc. access to this program.  By using this program,
 the user acknowledges that Gaussian, Inc. is engaged in the
 business of creating and licensing software in the field of
 computational chemistry and represents and warrants to the
 licensee that it is not a competitor of Gaussian, Inc. and that
 it will not use this program in any manner prohibited above.
 ---------------------------------------------------------------
  

 Cite this work as:
 Gaussian 09, Revision A.01,
 M. J. Frisch, G. W. Trucks, H. B. Schlegel, G. E. Scuseria, 
 M. A. Robb, J. R. Cheeseman, G. Scalmani, V. Barone, B. Mennucci, 
 G. A. Petersson, H. Nakatsuji, M. Caricato, X. Li, H. P. Hratchian, 
 A. F. Izmaylov, J. Bloino, G. Zheng, J. L. Sonnenberg, M. Hada, 
 M. Ehara, K. Toyota, R. Fukuda, J. Hasegawa, M. Ishida, T. Nakajima, 
 Y. Honda, O. Kitao, H. Nakai, T. Vreven, J. A. Montgomery, Jr., 
 J. E. Peralta, F. Ogliaro, M. Bearpark, J. J. Heyd, E. Brothers, 
 K. N. Kudin, V. N. Staroverov, R. Kobayashi, J. Normand, 
 K. Raghavachari, A. Rendell, J. C. Burant, S. S. Iyengar, J. Tomasi, 
 M. Cossi, N. Rega, J. M. Millam, M. Klene, J. E. Knox, J. B. Cross, 
 V. Bakken, C. Adamo, J. Jaramillo, R. Gomperts, R. E. Stratmann, 
 O. Yazyev, A. J. Austin, R. Cammi, C. Pomelli, J. W. Ochterski, 
 R. L. Martin, K. Morokuma, V. G. Zakrzewski, G. A. Voth, 
 P. Salvador, J. J. Dannenberg, S. Dapprich, A. D. Daniels, 
 O. Farkas, J. B. Foresman, J. V. Ortiz, J. Cioslowski, 
 and D. J. Fox, Gaussian, Inc., Wallingford CT, 2009.
 
 ******************************************
 Gaussian 09:  EM64L-G09RevA.01  8-May-2009
                19-Feb-2020 
 ******************************************
 %nproc=12
 Will use up to   12 processors via shared memory.
 %chk=molecule
 %mem=8Gb
 ------------------------------------------------------------
 #HF/6-31G* SCF=tight Test Pop=MK iop(6/33=2) iop(6/42=6) opt
 ------------------------------------------------------------
 1/18=20,19=15,38=1/1,3;
 2/9=110,12=2,17=6,18=5,40=1/2;
 3/5=1,6=6,7=1,11=9,16=1,25=1,30=1,71=1/1,2,3;
 4//1;
 5/5=2,32=2,38=5/2;
 6/7=2,8=2,9=2,10=2,15=8,20=1,28=1,33=2,42=6/1,2;
 7//1,2,3,16;
 1/18=20,19=15/3(2);
 2/9=110/2;
 99//99;
 2/9=110/2;
 3/5=1,6=6,7=1,11=9,16=1,25=1,30=1,71=1/1,2,3;
 4/5=5,16=3/1;
 5/5=2,32=2,38=5/2;
 7//1,2,3,16;
 1/18=20,19=15/3(-5);
 2/9=110/2;
 6/7=2,8=2,9=2,10=2,15=8,19=2,20=1,28=1,33=2,42=6/1,2;
 99/9=1/99;
 ---------------------
 remark line goes here
 ---------------------
 Symbolic Z-matrix:
 Charge =  0 Multiplicity = 1
 C
 C                    1    b2
 O                    2    b3       1    a3
 O                    1    b4       2    a4       3    t4       0
 H                    1    b5       2    a5       3    t5       0
 H                    1    b6       2    a6       3    t6       0
 H                    2    b7       1    a7       4    t7       0
 H                    2    b8       1    a8       4    t8       0
 H                    3    b9       2    a9       1    t9       0
 H                    4    b10      1    a10      2    t10      0
       Variables:
  b2                    1.5389                   
  b3                    1.4226                   
  a3                  109.9516                   
  b4                    1.4228                   
  a4                  109.9553                   
  t4                 -179.9578                   
  b5                    1.0921                   
  a5                  109.9543                   
  t5                  -60.006                    
  b6                    1.0918                   
  a6                  109.9754                   
  t6                   59.9804                   
  b7                    1.0921                   
  a7                  110.0051                   
  t7                   60.0619                   
  b8                    1.0929                   
  a8                  109.9977                   
  t8                  -59.9837                   
  b9                    0.9808                   
  a9                  104.7716                   
  t9                 -179.9787                   
  b10                   0.9799                   
  a10                 104.7483                   
  t10                 179.9643                   
 

 GradGradGradGradGradGradGradGradGradGradGradGradGradGradGradGradGradGrad
 Berny optimization.
 Initialization pass.
                           ----------------------------
                           !    Initial Parameters    !
                           ! (Angstroms and Degrees)  !
 --------------------------                            --------------------------
 ! Name  Definition              Value          Derivative Info.                !
 --------------------------------------------------------------------------------
 ! R1    R(1,2)                  1.5389         estimate D2E/DX2                !
 ! R2    R(1,4)                  1.4228         estimate D2E/DX2                !
 ! R3    R(1,5)                  1.0921         estimate D2E/DX2                !
 ! R4    R(1,6)                  1.0918         estimate D2E/DX2                !
 ! R5    R(2,3)                  1.4226         estimate D2E/DX2                !
 ! R6    R(2,7)                  1.0921         estimate D2E/DX2                !
 ! R7    R(2,8)                  1.0929         estimate D2E/DX2                !
 ! R8    R(3,9)                  0.9808         estimate D2E/DX2                !
 ! R9    R(4,10)                 0.9799         estimate D2E/DX2                !
 ! A1    A(2,1,4)              109.9553         estimate D2E/DX2                !
 ! A2    A(2,1,5)              109.9543         estimate D2E/DX2                !
 ! A3    A(2,1,6)              109.9754         estimate D2E/DX2                !
 ! A4    A(4,1,5)              108.9443         estimate D2E/DX2                !
 ! A5    A(4,1,6)              109.0226         estimate D2E/DX2                !
 ! A6    A(5,1,6)              108.9621         estimate D2E/DX2                !
 ! A7    A(1,2,3)              109.9516         estimate D2E/DX2                !
 ! A8    A(1,2,7)              110.0051         estimate D2E/DX2                !
 ! A9    A(1,2,8)              109.9977         estimate D2E/DX2                !
 ! A10   A(3,2,7)              108.9434         estimate D2E/DX2                !
 ! A11   A(3,2,8)              108.9422         estimate D2E/DX2                !
 ! A12   A(7,2,8)              108.9727         estimate D2E/DX2                !
 ! A13   A(2,3,9)              104.7716         estimate D2E/DX2                !
 ! A14   A(1,4,10)             104.7483         estimate D2E/DX2                !
 ! D1    D(4,1,2,3)           -179.9578         estimate D2E/DX2                !
 ! D2    D(4,1,2,7)             60.0619         estimate D2E/DX2                !
 ! D3    D(4,1,2,8)            -59.9837         estimate D2E/DX2                !
 ! D4    D(5,1,2,3)            -60.006          estimate D2E/DX2                !
 ! D5    D(5,1,2,7)           -179.9863         estimate D2E/DX2                !
 ! D6    D(5,1,2,8)             59.9681         estimate D2E/DX2                !
 ! D7    D(6,1,2,3)             59.9804         estimate D2E/DX2                !
 ! D8    D(6,1,2,7)            -59.9999         estimate D2E/DX2                !
 ! D9    D(6,1,2,8)            179.9545         estimate D2E/DX2                !
 ! D10   D(2,1,4,10)           179.9643         estimate D2E/DX2                !
 ! D11   D(5,1,4,10)            59.4011         estimate D2E/DX2                !
 ! D12   D(6,1,4,10)           -59.3977         estimate D2E/DX2                !
 ! D13   D(1,2,3,9)           -179.9787         estimate D2E/DX2                !
 ! D14   D(7,2,3,9)            -59.356          estimate D2E/DX2                !
 ! D15   D(8,2,3,9)             59.4084         estimate D2E/DX2                !
 --------------------------------------------------------------------------------
 Trust Radius=3.00D-01 FncErr=1.00D-07 GrdErr=1.00D-07
 Number of steps in this run=  48 maximum allowed number of steps= 100.
 GradGradGradGradGradGradGradGradGradGradGradGradGradGradGradGradGradGrad

                          Input orientation:                          
 ---------------------------------------------------------------------
 Center     Atomic      Atomic             Coordinates (Angstroms)
 Number     Number       Type             X           Y           Z
 ---------------------------------------------------------------------
      1          6           0        0.000000    0.000000    0.000000
      2          6           0        0.000000    0.000000    1.538900
      3          8           0        1.337217    0.000000    2.024328
      4          8           0       -1.337374    0.000985   -0.485583
      5          1           0        0.513175    0.889060   -0.372702
      6          1           0        0.513362   -0.888468   -0.372977
      7          1           0       -0.512797   -0.888896    1.912512
      8          1           0       -0.513100    0.889645    1.912653
      9          1           0        1.248666   -0.000353    3.001123
     10          1           0       -1.248443    0.001510   -1.461439
 ---------------------------------------------------------------------
                    Distance matrix (angstroms):
                    1          2          3          4          5
     1  C    0.000000
     2  C    1.538900   0.000000
     3  O    2.426119   1.422600   0.000000
     4  O    1.422800   2.426335   3.667846   0.000000
     5  H    1.092100   2.169792   2.686117   2.055711   0.000000
     6  H    1.091800   2.169836   2.686110   2.056460   1.777527
     7  H    2.170437   1.092100   2.055527   2.687503   3.071798
     8  H    2.170940   1.092900   2.056116   2.687132   2.505212
     9  H    3.250524   1.922827   0.980800   4.341050   3.565767
    10  H    1.922087   3.249715   4.340071   0.979900   2.253085
                    6          7          8          9         10
     6  H    0.000000
     7  H    2.505287   0.000000
     8  H    3.072362   1.778541   0.000000
     9  H    3.565665   2.253294   2.254037   0.000000
    10  H    2.254056   3.566166   3.565671   5.113709   0.000000
 Stoichiometry    C2H6O2
 Framework group  C1[X(C2H6O2)]
 Deg. of freedom    24
 Full point group                 C1      NOp   1
 Largest Abelian subgroup         C1      NOp   1
 Largest concise Abelian subgroup C1      NOp   1
                         Standard orientation:                         
 ---------------------------------------------------------------------
 Center     Atomic      Atomic             Coordinates (Angstroms)
 Number     Number       Type             X           Y           Z
 ---------------------------------------------------------------------
      1          6           0        0.605242   -0.475175   -0.000300
      2          6           0       -0.605199    0.475112   -0.000310
      3          8           0       -1.812765   -0.276936    0.000299
      4          8           0        1.813026    0.276901    0.000075
      5          1           0        0.581752   -1.108642    0.888997
      6          1           0        0.581359   -1.109607   -0.888530
      7          1           0       -0.582658    1.108844   -0.889444
      8          1           0       -0.582087    1.109818    0.889097
      9          1           0       -2.526393    0.395896   -0.000100
     10          1           0        2.525683   -0.395649    0.000647
 ---------------------------------------------------------------------
 Rotational constants (GHZ):     31.2844656      3.8425873      3.5765746
 Standard basis: 6-31G(d) (6D, 7F)
 There are    72 symmetry adapted basis functions of A   symmetry.
 Integral buffers will be    131072 words long.
 Raffenetti 1 integral format.
 Two-electron integral symmetry is turned on.
    72 basis functions,   136 primitive gaussians,    72 cartesian basis functions
    17 alpha electrons       17 beta electrons
       nuclear repulsion energy       129.1201998105 Hartrees.
 NAtoms=   10 NActive=   10 NUniq=   10 SFac= 7.50D-01 NAtFMM=   80 NAOKFM=F Big=F
 One-electron integrals computed using PRISM.
 NBasis=    72 RedAO= T  NBF=    72
 NBsUse=    72 1.00D-06 NBFU=    72
 Harris functional with IExCor=  205 diagonalized for initial guess.
 ExpMin= 1.61D-01 ExpMax= 5.48D+03 ExpMxC= 8.25D+02 IAcc=1 IRadAn=         1 AccDes= 0.00D+00
 HarFok:  IExCor=  205 AccDes= 0.00D+00 IRadAn=         1 IDoV= 1
 ScaDFX=  1.000000  1.000000  1.000000  1.000000
 FoFCou: FMM=F IPFlag=           0 FMFlag=      100000 FMFlg1=           0
         NFxFlg=           0 DoJE=T BraDBF=F KetDBF=T FulRan=T
         Omega=  0.000000  0.000000  1.000000  0.000000  0.000000 ICntrl=     500 IOpCl=  0
         NMat0=    1 NMatS0=    1 NMatT0=    0 NMatD0=    1 NMtDS0=    0 NMtDT0=    0
         I1Cent=           4 NGrid=           0.
 Petite list used in FoFCou.
 Initial guess orbital symmetries:
       Occupied  (A) (A) (A) (A) (A) (A) (A) (A) (A) (A) (A) (A)
                 (A) (A) (A) (A) (A)
       Virtual   (A) (A) (A) (A) (A) (A) (A) (A) (A) (A) (A) (A)
                 (A) (A) (A) (A) (A) (A) (A) (A) (A) (A) (A) (A)
                 (A) (A) (A) (A) (A) (A) (A) (A) (A) (A) (A) (A)
                 (A) (A) (A) (A) (A) (A) (A) (A) (A) (A) (A) (A)
                 (A) (A) (A) (A) (A) (A) (A)
 The electronic state of the initial guess is 1-A.
 Requested convergence on RMS density matrix=1.00D-08 within 128 cycles.
 Requested convergence on MAX density matrix=1.00D-06.
 Requested convergence on             energy=1.00D-06.
 No special actions if energy rises.
 Keep R1 ints in memory in canonical form, NReq=4309634.
 SCF Done:  E(RHF) =  -228.916420004     A.U. after   11 cycles
             Convg  =    0.7872D-08             -V/T =  2.0027

 **********************************************************************

            Population analysis using the SCF density.

 **********************************************************************

 Orbital symmetries:
 BldTbl:  Degeneracy threshold= 1.00D-02
       Occupied  (A) (A) (A) (A) (A) (A) (A) (A) (A) (A) (A) (A)
                 (A) (A) (A) (A) (A)
       Virtual   (A) (A) (A) (A) (A) (A) (A) (A) (A) (A) (A) (A)
                 (A) (A) (A) (A) (A) (A) (A) (A) (A) (A) (A) (A)
                 (A) (A) (A) (A) (A) (A) (A) (A) (A) (A) (A) (A)
                 (A) (A) (A) (A) (A) (A) (A) (A) (A) (A) (A) (A)
                 (A) (A) (A) (A) (A) (A) (A)
 The electronic state is 1-A.
 Alpha  occ. eigenvalues --  -20.56445 -20.56440 -11.27700 -11.27641  -1.36090
 Alpha  occ. eigenvalues --   -1.34914  -0.98862  -0.83083  -0.70457  -0.66713
 Alpha  occ. eigenvalues --   -0.66467  -0.58364  -0.57444  -0.53622  -0.47650
 Alpha  occ. eigenvalues --   -0.45196  -0.43641
 Alpha virt. eigenvalues --    0.20531   0.22789   0.28416   0.30271   0.31554
 Alpha virt. eigenvalues --    0.36168   0.37945   0.42624   0.43442   0.74461
 Alpha virt. eigenvalues --    0.77918   0.80319   0.82956   0.89876   0.96535
 Alpha virt. eigenvalues --    1.05619   1.06751   1.08467   1.11822   1.14795
 Alpha virt. eigenvalues --    1.19079   1.19407   1.23258   1.25414   1.28441
 Alpha virt. eigenvalues --    1.33241   1.35006   1.55480   1.59173   1.67202
 Alpha virt. eigenvalues --    1.73981   1.76595   1.90926   2.01779   2.03296
 Alpha virt. eigenvalues --    2.05200   2.13154   2.23538   2.34466   2.37570
 Alpha virt. eigenvalues --    2.43700   2.46211   2.63799   2.68439   2.77033
 Alpha virt. eigenvalues --    2.77175   2.77218   2.84464   2.94569   3.20474
 Alpha virt. eigenvalues --    3.25204   4.06183   4.26253   4.61510   4.85401
          Condensed to atoms (all electrons):
              1          2          3          4          5          6
     1  C    4.797768   0.362689  -0.041341   0.199070   0.395319   0.395194
     2  C    0.362689   4.798048   0.198776  -0.041305  -0.041785  -0.041763
     3  O   -0.041341   0.198776   8.399029   0.000712   0.003786   0.003791
     4  O    0.199070  -0.041305   0.000712   8.398503  -0.039065  -0.038952
     5  H    0.395319  -0.041785   0.003786  -0.039065   0.574356  -0.043189
     6  H    0.395194  -0.041763   0.003791  -0.038952  -0.043189   0.574217
     7  H   -0.041739   0.395252  -0.039073   0.003774   0.004988  -0.005937
     8  H   -0.041732   0.395273  -0.039090   0.003776  -0.005943   0.004983
     9  H    0.005361  -0.023591   0.258269  -0.000075  -0.000214  -0.000215
    10  H   -0.023586   0.005359  -0.000075   0.258361  -0.004030  -0.004018
              7          8          9         10
     1  C   -0.041739  -0.041732   0.005361  -0.023586
     2  C    0.395252   0.395273  -0.023591   0.005359
     3  O   -0.039073  -0.039090   0.258269  -0.000075
     4  O    0.003774   0.003776  -0.000075   0.258361
     5  H    0.004988  -0.005943  -0.000214  -0.004030
     6  H   -0.005937   0.004983  -0.000215  -0.004018
     7  H    0.574354  -0.043132  -0.004039  -0.000214
     8  H   -0.043132   0.574505  -0.004027  -0.000213
     9  H   -0.004039  -0.004027   0.328309   0.000005
    10  H   -0.000214  -0.000213   0.000005   0.328121
 Mulliken atomic charges:
              1
     1  C   -0.007004
     2  C   -0.006954
     3  O   -0.744785
     4  O   -0.744799
     5  H    0.155777
     6  H    0.155889
     7  H    0.155767
     8  H    0.155601
     9  H    0.440217
    10  H    0.440291
 Sum of Mulliken atomic charges =   0.00000
 Mulliken charges with hydrogens summed into heavy atoms:
              1
     1  C    0.304662
     2  C    0.304415
     3  O   -0.304567
     4  O   -0.304509
 Sum of Mulliken charges with hydrogens summed into heavy atoms =   0.00000
 DipInt: DoE/N= T F RetVal/Mat= T F Init=T NMatP=  1 IDeriv=0 Min/MaxMlt=  0  4
 Entering OneElI...
 OneElI was handed  1073726916 working-precision words.
 Multipole integrals L=0 to 4 MinM= 0 MaxM= 0.
 Requested accuracy = 0.1000D-12
 PrsmSu:  NPrtUS=   1 ThrOK=F IAlg=1
 PRISM was handed  1073686959 working-precision words and   399 shell-pairs
 IPart=  0 NShTot=         399 NBatch=          33 AvBLen=        12.1
 Electronic moments (au):
        -34.00000000         -0.00062012         -0.00041016         -0.00065220
       -269.39235488        -51.20750457        -30.06820903         -6.22829374
          0.00456610         -0.00004234         -0.06491227         -0.01721173
         -0.00416194          0.02166122         -0.03590099         -0.07532678
          0.01751814         -0.01759629         -0.00044087         -0.01550068
      -3842.16231750       -259.36939768       -126.15253878       -253.73406539
          0.06763355         42.09736734         -0.06042453         -0.01106321
          0.00546984       -270.19793948       -172.31954956        -90.80046497
          0.04234589          0.01000389         22.70156758
 Electronic spatial extent (au):  <R**2>=            350.6681
 DipInt: DoE/N= F T RetVal/Mat= T F Init=T NMatP=  1 IDeriv=0 Min/MaxMlt=  0  4
 Nuclear    moments (au):
         34.00000000          0.00000000          0.00000000          0.00000000
        253.89341376         32.74986138         11.28958768          0.00000000
          0.00000000          0.00000000          0.03787699          0.00888815
          0.00191613         -0.02020530          0.04137600          0.07995075
         -0.01579533          0.01567985         -0.00233091          0.01419643
       3268.80500294         86.84688027         31.86366812        146.68293815
          0.03050221        -46.58869481          0.06583437          0.02295999
         -0.00992568        110.82661626         13.65433455         49.60403145
         -0.05557450         -0.00682270        -26.02510131
 Total      moments (au):
          0.00000000         -0.00062012         -0.00041016         -0.00065220
        -15.49894113        -18.45764318        -18.77862135         -6.22829374
          0.00456610         -0.00004234         -0.02703528         -0.00832358
         -0.00224581          0.00145592          0.00547501          0.00462397
          0.00172281         -0.00191644         -0.00277178         -0.00130425
       -573.35731456       -172.52251741        -94.28887065       -107.05112724
          0.09813575         -4.49132747          0.00540984          0.01189678
         -0.00445584       -159.37132322       -158.66521502        -41.19643352
         -0.01322861          0.00318119         -3.32353373
 Traceless Quadrup. (au):
          2.07946076         -0.87924130         -1.20021946         -6.22829374
          0.00456610         -0.00004234
 Charge=              0.0000 electrons
 Dipole moment (field-independent basis, Debye):
    X=             -0.0016    Y=             -0.0010    Z=             -0.0017  Tot=              0.0025
 Quadrupole moment (field-independent basis, Debye-Ang):
   XX=            -20.8466   YY=            -24.8262   ZZ=            -25.2579
   XY=             -8.3773   XZ=              0.0061   YZ=             -0.0001
 Traceless Quadrupole moment (field-independent basis, Debye-Ang):
   XX=              2.7969   YY=             -1.1826   ZZ=             -1.6143
   XY=             -8.3773   XZ=              0.0061   YZ=             -0.0001
 Octapole moment (field-independent basis, Debye-Ang**2):
  XXX=             -0.0192  YYY=             -0.0059  ZZZ=             -0.0016  XYY=              0.0010
  XXY=              0.0039  XXZ=              0.0033  XZZ=              0.0012  YZZ=             -0.0014
  YYZ=             -0.0020  XYZ=             -0.0009
 Hexadecapole moment (field-independent basis, Debye-Ang**3):
 XXXX=           -215.9538 YYYY=            -64.9802 ZZZZ=            -35.5137 XXXY=            -40.3206
 XXXZ=              0.0370 YYYX=             -1.6916 YYYZ=              0.0020 ZZZX=              0.0045
 ZZZY=             -0.0017 XXYY=            -60.0269 XXZZ=            -59.7609 YYZZ=            -15.5166
 XXYZ=             -0.0050 YYXZ=              0.0012 ZZXY=             -1.2518
 N-N= 1.291201998105D+02 E-N=-7.977587067726D+02  KE= 2.283000534688D+02
 Entering OneElI...
 OneElI was handed  1073716226 working-precision words.
 Calculate electrostatic properties
    NBasis =    72  MinDer = 0  MaxDer = 0
    NGrid  =    10  NMatD  =   1
 Requested accuracy = 0.1000D-12
 PrsmSu:  NPrtUS=  12 ThrOK=T IAlg=1
 PRISM was handed    89458938 working-precision words and   396 shell-pairs
 PRISM was handed    89458938 working-precision words and   396 shell-pairs
 PRISM was handed    89458938 working-precision words and   396 shell-pairs
 PRISM was handed    89458938 working-precision words and   396 shell-pairs
 PRISM was handed    89458938 working-precision words and   396 shell-pairs
 PRISM was handed    89458938 working-precision words and   396 shell-pairs
 PRISM was handed    89458938 working-precision words and   396 shell-pairs
 PRISM was handed    89458938 working-precision words and   396 shell-pairs
 PRISM was handed    89458938 working-precision words and   396 shell-pairs
 PRISM was handed    89458938 working-precision words and   396 shell-pairs
 PRISM was handed    89458938 working-precision words and   396 shell-pairs
 PRISM was handed    89458938 working-precision words and   396 shell-pairs
 IPart=  1 NShTot=         530 NBatch=          53 AvBLen=        10.0
 IPart=  8 NShTot=         250 NBatch=          25 AvBLen=        10.0
 IPart= 11 NShTot=         220 NBatch=          22 AvBLen=        10.0
 IPart= 10 NShTot=         230 NBatch=          23 AvBLen=        10.0
 IPart=  0 NShTot=         530 NBatch=          53 AvBLen=        10.0
 IPart=  7 NShTot=         260 NBatch=          26 AvBLen=        10.0
 IPart=  4 NShTot=         300 NBatch=          30 AvBLen=        10.0
 IPart=  5 NShTot=         300 NBatch=          30 AvBLen=        10.0
 IPart=  2 NShTot=         420 NBatch=          42 AvBLen=        10.0
 IPart=  3 NShTot=         410 NBatch=          41 AvBLen=        10.0
 IPart=  9 NShTot=         240 NBatch=          24 AvBLen=        10.0
 IPart=  6 NShTot=         270 NBatch=          27 AvBLen=        10.0
 --------------------------------------------------------
       Center         ----      EFG at Nuclei      ----
                      3XX-RR        3YY-RR        3ZZ-RR
 --------------------------------------------------------
     1   Atom       -0.209978      0.007050      0.202928
     2   Atom       -0.209306      0.006964      0.202342
     3   Atom       -1.773887     -0.248373      2.022259
     4   Atom       -1.773041     -0.248394      2.021435
     5   Atom        0.137268      0.002048     -0.139316
     6   Atom        0.137519      0.001565     -0.139084
     7   Atom        0.137285      0.001921     -0.139205
     8   Atom        0.136620      0.001679     -0.138299
     9   Atom       -0.142460     -0.095173      0.237633
    10   Atom       -0.143056     -0.096017      0.239074
 --------------------------------------------------------
                        XY            XZ            YZ
 --------------------------------------------------------
     1   Atom       -0.213964      0.000110      0.000199
     2   Atom       -0.214093      0.000233     -0.000327
     3   Atom        0.143195      0.000192      0.001426
     4   Atom        0.141340     -0.002553      0.000109
     5   Atom       -0.007296      0.007175      0.210271
     6   Atom       -0.007371     -0.007252     -0.210800
     7   Atom       -0.007102      0.006912      0.210330
     8   Atom       -0.007198     -0.007051     -0.209426
     9   Atom        0.294322     -0.000168      0.000206
    10   Atom        0.296292     -0.000295      0.000258
 --------------------------------------------------------


 ---------------------------------------------------------------------------------
              Nuclear Quadrupole in Principal Axis System
 ---------------------------------------------------------------------------------

       Atom             a.u.   MegaHertz   Gauss  10(-4) cm-1        Axes

              Baa    -0.3414   -45.809   -16.346   -15.280  0.8521  0.5233 -0.0004
     1 C(13)  Bbb     0.1384    18.578     6.629     6.197 -0.5233  0.8521 -0.0017
              Bcc     0.2029    27.231     9.717     9.083 -0.0006  0.0017  1.0000
 
              Baa    -0.3410   -45.762   -16.329   -15.265  0.8517  0.5240 -0.0001
     2 C(13)  Bbb     0.1387    18.609     6.640     6.207 -0.5240  0.8517  0.0063
              Bcc     0.2023    27.153     9.689     9.057  0.0033 -0.0053  1.0000
 
              Baa    -1.7872   129.321    46.145    43.137  0.9957 -0.0927  0.0000
     3 O(17)  Bbb    -0.2350    17.008     6.069     5.673  0.0927  0.9957 -0.0006
              Bcc     2.0223  -146.329   -52.214   -48.810  0.0001  0.0006  1.0000
 
              Baa    -1.7860   129.236    46.115    43.109  0.9958 -0.0915  0.0007
     4 O(17)  Bbb    -0.2354    17.034     6.078     5.682  0.0915  0.9958  0.0001
              Bcc     2.0214  -146.270   -52.193   -48.790 -0.0007  0.0000  1.0000
 
              Baa    -0.2907  -155.106   -55.346   -51.738 -0.0236 -0.5836  0.8117
     5 H(1)   Bbb     0.1373    73.265    26.143    24.439  0.9938  0.0746  0.0824
              Bcc     0.1534    81.841    29.203    27.299 -0.1086  0.8086  0.5782
 
              Baa    -0.2912  -155.383   -55.444   -51.830  0.0238  0.5845  0.8110
     6 H(1)   Bbb     0.1376    73.401    26.191    24.484  0.9938  0.0745 -0.0828
              Bcc     0.1537    81.982    29.253    27.346 -0.1088  0.8080 -0.5791
 
              Baa    -0.2907  -155.112   -55.348   -51.740 -0.0228 -0.5838  0.8115
     7 H(1)   Bbb     0.1373    73.267    26.143    24.439  0.9939  0.0746  0.0816
              Bcc     0.1534    81.845    29.204    27.301 -0.1081  0.8084  0.5786
 
              Baa    -0.2894  -154.385   -55.088   -51.497  0.0233  0.5843  0.8112
     8 H(1)   Bbb     0.1367    72.918    26.019    24.323  0.9939  0.0740 -0.0819
              Bcc     0.1527    81.467    29.070    27.175 -0.1079  0.8081 -0.5790
 
              Baa    -0.4141  -220.937   -78.836   -73.697  0.7349 -0.6782  0.0004
     9 H(1)   Bbb     0.1765    94.148    33.594    31.404  0.6782  0.7349 -0.0006
              Bcc     0.2376   126.790    45.242    42.292  0.0001  0.0007  1.0000
 
              Baa    -0.4168  -222.364   -79.345   -74.173  0.7346 -0.6786  0.0006
    10 H(1)   Bbb     0.1777    94.805    33.829    31.624  0.6786  0.7346  0.0002
              Bcc     0.2391   127.558    45.516    42.549 -0.0006  0.0003  1.0000
 

 ---------------------------------------------------------------------------------

 No NMR shielding tensors so no spin-rotation constants.
 Leave Link  601 at Wed Feb 19 11:13:38 2020, MaxMem= 1073741824 cpu:       6.0
 Merz-Kollman atomic radii used.
 Atom Element Radius
    1     6    1.50
    2     6    1.50
    3     8    1.40
    4     8    1.40
    5     1    1.20
    6     1    1.20
    7     1    1.20
    8     1    1.20
    9     1    1.20
   10     1    1.20
 Generate VDW surfaces: Layer= 4 Dens= 6 Start= 1.400 Inc= 0.200

 **********************************************************************

            Electrostatic Properties Using The SCF Density

 **********************************************************************

       Atomic Center    1 is at   0.605242 -0.475175 -0.000300
       Atomic Center    2 is at  -0.605199  0.475112 -0.000310
       Atomic Center    3 is at  -1.812765 -0.276936  0.000299
       Atomic Center    4 is at   1.813026  0.276901  0.000075
       Atomic Center    5 is at   0.581752 -1.108642  0.888997
       Atomic Center    6 is at   0.581359 -1.109607 -0.888530
       Atomic Center    7 is at  -0.582658  1.108844 -0.889444
       Atomic Center    8 is at  -0.582087  1.109818  0.889097
       Atomic Center    9 is at  -2.526393  0.395896 -0.000100
       Atomic Center   10 is at   2.525683 -0.395649  0.000647
      ESP Fit Center   11 is at   1.007060  0.220794  1.939847
      ESP Fit Center   12 is at   0.605242  0.328460  1.939847
      ESP Fit Center   13 is at   2.024272 -1.967994  0.409389
      ESP Fit Center   14 is at  -0.561455 -2.221261 -0.000300
      ESP Fit Center   15 is at  -0.198393 -2.415322 -0.000300
      ESP Fit Center   16 is at   0.195552 -2.534824 -0.000300
      ESP Fit Center   17 is at   0.605242 -2.575175 -0.000300
      ESP Fit Center   18 is at   1.014932 -2.534824 -0.000300
      ESP Fit Center   19 is at   1.408877 -2.415322 -0.000300
      ESP Fit Center   20 is at   1.771940 -2.221261 -0.000300
      ESP Fit Center   21 is at   2.024272 -1.967994 -0.409990
      ESP Fit Center   22 is at   1.007060  0.220794 -1.940447
      ESP Fit Center   23 is at   0.605242  0.328460 -1.940447
      ESP Fit Center   24 is at  -1.007017 -0.220857  1.939837
      ESP Fit Center   25 is at  -0.605199 -0.328523  1.939837
      ESP Fit Center   26 is at  -0.924481 -0.647048  1.745776
      ESP Fit Center   27 is at   0.813831  1.967931  0.409379
      ESP Fit Center   28 is at  -1.865923  2.103832  0.409379
      ESP Fit Center   29 is at   0.561498  2.221198 -0.000310
      ESP Fit Center   30 is at   0.198436  2.415259 -0.000310
      ESP Fit Center   31 is at  -0.195510  2.534761 -0.000310
      ESP Fit Center   32 is at  -0.605199  2.575112 -0.000310
      ESP Fit Center   33 is at  -1.014889  2.534761 -0.000310
      ESP Fit Center   34 is at  -1.408835  2.415259 -0.000310
      ESP Fit Center   35 is at  -1.771897  2.221198 -0.000310
      ESP Fit Center   36 is at   0.813831  1.967931 -0.410000
      ESP Fit Center   37 is at  -1.865923  2.103832 -0.410000
      ESP Fit Center   38 is at  -0.924481 -0.647048 -1.746396
      ESP Fit Center   39 is at  -1.007017 -0.220857 -1.940457
      ESP Fit Center   40 is at  -0.605199 -0.328523 -1.940457
      ESP Fit Center   41 is at  -1.812765 -0.276936  1.960299
      ESP Fit Center   42 is at  -1.405258 -0.276936  1.917469
      ESP Fit Center   43 is at  -1.609011  0.075975  1.917469
      ESP Fit Center   44 is at  -2.016518  0.075975  1.917469
      ESP Fit Center   45 is at  -2.220272 -0.276936  1.917469
      ESP Fit Center   46 is at  -2.016518 -0.629848  1.917469
      ESP Fit Center   47 is at  -1.609011 -0.629848  1.917469
      ESP Fit Center   48 is at  -2.211367  0.413463  1.790849
      ESP Fit Center   49 is at  -2.503163  0.121666  1.790849
      ESP Fit Center   50 is at  -2.609968 -0.276936  1.790849
      ESP Fit Center   51 is at  -2.503163 -0.675538  1.790849
      ESP Fit Center   52 is at  -2.211367 -0.967335  1.790849
      ESP Fit Center   53 is at  -1.812765 -1.074140  1.790849
      ESP Fit Center   54 is at  -1.414163 -0.967335  1.790849
      ESP Fit Center   55 is at  -1.122366 -0.675538  1.790849
      ESP Fit Center   56 is at  -2.128041  0.831144  1.585973
      ESP Fit Center   57 is at  -2.945208 -0.065246  1.585973
      ESP Fit Center   58 is at  -2.945208 -0.488627  1.585973
      ESP Fit Center   59 is at  -2.792265 -0.883417  1.585973
      ESP Fit Center   60 is at  -2.507035 -1.196299  1.585973
      ESP Fit Center   61 is at  -2.128041 -1.385016  1.585973
      ESP Fit Center   62 is at  -1.706466 -1.424081  1.585973
      ESP Fit Center   63 is at  -1.299248 -1.308217  1.585973
      ESP Fit Center   64 is at  -0.961383 -1.053073  1.585973
      ESP Fit Center   65 is at  -3.210327 -0.687298  1.311795
      ESP Fit Center   66 is at  -3.038104 -1.064414  1.311795
      ESP Fit Center   67 is at  -2.766611 -1.377734  1.311795
      ESP Fit Center   68 is at  -2.417843 -1.601873  1.311795
      ESP Fit Center   69 is at  -2.020055 -1.718674  1.311795
      ESP Fit Center   70 is at  -1.605474 -1.718674  1.311795
      ESP Fit Center   71 is at  -1.207686 -1.601873  1.311795
      ESP Fit Center   72 is at  -3.390976 -0.901794  0.980299
      ESP Fit Center   73 is at  -3.185998 -1.274649  0.980299
      ESP Fit Center   74 is at  -2.894734 -1.584813  0.980299
      ESP Fit Center   75 is at  -2.535487 -1.812799  0.980299
      ESP Fit Center   76 is at  -2.130828 -1.944280  0.980299
      ESP Fit Center   77 is at  -1.706183 -1.970997  0.980299
      ESP Fit Center   78 is at  -1.288236 -1.891269  0.980299
      ESP Fit Center   79 is at  -3.492234 -1.085726  0.605973
      ESP Fit Center   80 is at  -3.270154 -1.439165  0.605973
      ESP Fit Center   81 is at  -2.974994 -1.734325  0.605973
      ESP Fit Center   82 is at  -2.621555 -1.956406  0.605973
      ESP Fit Center   83 is at  -2.227559 -2.094271  0.605973
      ESP Fit Center   84 is at  -1.812765 -2.141007  0.605973
      ESP Fit Center   85 is at  -1.397970 -2.094271  0.605973
      ESP Fit Center   86 is at  -1.003975 -1.956406  0.605973
      ESP Fit Center   87 is at  -3.659990 -0.899339  0.205175
      ESP Fit Center   88 is at  -3.483005 -1.281886  0.205175
      ESP Fit Center   89 is at  -3.227921 -1.617443  0.205175
      ESP Fit Center   90 is at  -2.906666 -1.890320  0.205175
      ESP Fit Center   91 is at  -2.534261 -2.087756  0.205175
      ESP Fit Center   92 is at  -2.128120 -2.200521  0.205175
      ESP Fit Center   93 is at  -1.707234 -2.223340  0.205175
      ESP Fit Center   94 is at  -1.291282 -2.155148  0.205175
      ESP Fit Center   95 is at  -0.899713 -1.999133  0.205175
      ESP Fit Center   96 is at  -3.659990 -0.899339 -0.204576
      ESP Fit Center   97 is at  -3.483005 -1.281886 -0.204576
      ESP Fit Center   98 is at  -3.227921 -1.617443 -0.204576
      ESP Fit Center   99 is at  -2.906666 -1.890320 -0.204576
      ESP Fit Center  100 is at  -2.534261 -2.087756 -0.204576
      ESP Fit Center  101 is at  -2.128120 -2.200521 -0.204576
      ESP Fit Center  102 is at  -1.707234 -2.223340 -0.204576
      ESP Fit Center  103 is at  -1.291282 -2.155148 -0.204576
      ESP Fit Center  104 is at  -0.899713 -1.999133 -0.204576
      ESP Fit Center  105 is at  -3.492234 -1.085726 -0.605374
      ESP Fit Center  106 is at  -3.270154 -1.439165 -0.605374
      ESP Fit Center  107 is at  -2.974994 -1.734325 -0.605374
      ESP Fit Center  108 is at  -2.621555 -1.956406 -0.605374
      ESP Fit Center  109 is at  -2.227559 -2.094271 -0.605374
      ESP Fit Center  110 is at  -1.812765 -2.141007 -0.605374
      ESP Fit Center  111 is at  -1.397970 -2.094271 -0.605374
      ESP Fit Center  112 is at  -1.003975 -1.956406 -0.605374
      ESP Fit Center  113 is at  -3.390976 -0.901794 -0.979701
      ESP Fit Center  114 is at  -3.185998 -1.274649 -0.979701
      ESP Fit Center  115 is at  -2.894734 -1.584813 -0.979701
      ESP Fit Center  116 is at  -2.535487 -1.812799 -0.979701
      ESP Fit Center  117 is at  -2.130828 -1.944280 -0.979701
      ESP Fit Center  118 is at  -1.706183 -1.970997 -0.979701
      ESP Fit Center  119 is at  -1.288236 -1.891269 -0.979701
      ESP Fit Center  120 is at  -3.210327 -0.687298 -1.311197
      ESP Fit Center  121 is at  -3.038104 -1.064414 -1.311197
      ESP Fit Center  122 is at  -2.766611 -1.377734 -1.311197
      ESP Fit Center  123 is at  -2.417843 -1.601873 -1.311197
      ESP Fit Center  124 is at  -2.020055 -1.718674 -1.311197
      ESP Fit Center  125 is at  -1.605474 -1.718674 -1.311197
      ESP Fit Center  126 is at  -1.207686 -1.601873 -1.311197
      ESP Fit Center  127 is at  -2.128041  0.831144 -1.585374
      ESP Fit Center  128 is at  -2.945208 -0.065246 -1.585374
      ESP Fit Center  129 is at  -2.945208 -0.488627 -1.585374
      ESP Fit Center  130 is at  -2.792265 -0.883417 -1.585374
      ESP Fit Center  131 is at  -2.507035 -1.196299 -1.585374
      ESP Fit Center  132 is at  -2.128041 -1.385016 -1.585374
      ESP Fit Center  133 is at  -1.706466 -1.424081 -1.585374
      ESP Fit Center  134 is at  -1.299248 -1.308217 -1.585374
      ESP Fit Center  135 is at  -0.961383 -1.053073 -1.585374
      ESP Fit Center  136 is at  -2.211367  0.413463 -1.790250
      ESP Fit Center  137 is at  -2.503163  0.121666 -1.790250
      ESP Fit Center  138 is at  -2.609968 -0.276936 -1.790250
      ESP Fit Center  139 is at  -2.503163 -0.675538 -1.790250
      ESP Fit Center  140 is at  -2.211367 -0.967335 -1.790250
      ESP Fit Center  141 is at  -1.812765 -1.074140 -1.790250
      ESP Fit Center  142 is at  -1.414163 -0.967335 -1.790250
      ESP Fit Center  143 is at  -1.122366 -0.675538 -1.790250
      ESP Fit Center  144 is at  -1.405258 -0.276936 -1.916870
      ESP Fit Center  145 is at  -1.609011  0.075975 -1.916870
      ESP Fit Center  146 is at  -2.016518  0.075975 -1.916870
      ESP Fit Center  147 is at  -2.220272 -0.276936 -1.916870
      ESP Fit Center  148 is at  -2.016518 -0.629848 -1.916870
      ESP Fit Center  149 is at  -1.609011 -0.629848 -1.916870
      ESP Fit Center  150 is at  -1.812765 -0.276936 -1.959701
      ESP Fit Center  151 is at   1.813026  0.276901  1.960075
      ESP Fit Center  152 is at   2.220533  0.276901  1.917244
      ESP Fit Center  153 is at   2.016779  0.629812  1.917244
      ESP Fit Center  154 is at   1.609272  0.629812  1.917244
      ESP Fit Center  155 is at   1.405519  0.276901  1.917244
      ESP Fit Center  156 is at   1.609272 -0.076010  1.917244
      ESP Fit Center  157 is at   2.016779 -0.076010  1.917244
      ESP Fit Center  158 is at   2.610230  0.276901  1.790624
      ESP Fit Center  159 is at   2.503425  0.675503  1.790624
      ESP Fit Center  160 is at   2.211628  0.967300  1.790624
      ESP Fit Center  161 is at   1.813026  1.074105  1.790624
      ESP Fit Center  162 is at   1.414424  0.967300  1.790624
      ESP Fit Center  163 is at   1.122627  0.675503  1.790624
      ESP Fit Center  164 is at   2.211628 -0.413498  1.790624
      ESP Fit Center  165 is at   2.503425 -0.121701  1.790624
      ESP Fit Center  166 is at   2.965085  0.276901  1.585748
      ESP Fit Center  167 is at   2.887289  0.693073  1.585748
      ESP Fit Center  168 is at   2.664408  1.053038  1.585748
      ESP Fit Center  169 is at   2.326543  1.308182  1.585748
      ESP Fit Center  170 is at   1.919324  1.424046  1.585748
      ESP Fit Center  171 is at   1.497750  1.384981  1.585748
      ESP Fit Center  172 is at   1.118755  1.196264  1.585748
      ESP Fit Center  173 is at   3.210589  0.687263  1.311571
      ESP Fit Center  174 is at   3.038365  1.064379  1.311571
      ESP Fit Center  175 is at   2.766872  1.377699  1.311571
      ESP Fit Center  176 is at   2.418104  1.601838  1.311571
      ESP Fit Center  177 is at   2.020316  1.718639  1.311571
      ESP Fit Center  178 is at   1.605735  1.718639  1.311571
      ESP Fit Center  179 is at   1.207947  1.601838  1.311571
      ESP Fit Center  180 is at   3.457108  0.699030  0.980075
      ESP Fit Center  181 is at   3.300477  1.094635  0.980075
      ESP Fit Center  182 is at   3.050384  1.438858  0.980075
      ESP Fit Center  183 is at   2.722543  1.710072  0.980075
      ESP Fit Center  184 is at   2.337554  1.891234  0.980075
      ESP Fit Center  185 is at   1.919607  1.970961  0.980075
      ESP Fit Center  186 is at   1.494963  1.944245  0.980075
      ESP Fit Center  187 is at   1.090304  1.812763  0.980075
      ESP Fit Center  188 is at   3.492496  1.085691  0.605748
      ESP Fit Center  189 is at   3.270415  1.439130  0.605748
      ESP Fit Center  190 is at   2.975255  1.734290  0.605748
      ESP Fit Center  191 is at   2.621816  1.956371  0.605748
      ESP Fit Center  192 is at   2.227821  2.094236  0.605748
      ESP Fit Center  193 is at   1.813026  2.140972  0.605748
      ESP Fit Center  194 is at   1.398231  2.094236  0.605748
      ESP Fit Center  195 is at   1.004236  1.956371  0.605748
      ESP Fit Center  196 is at   3.582129  1.095375  0.204951
      ESP Fit Center  197 is at   3.364821  1.456545  0.204951
      ESP Fit Center  198 is at   3.074952  1.762555  0.204951
      ESP Fit Center  199 is at   2.726077  1.999098  0.204951
      ESP Fit Center  200 is at   2.334509  2.155113  0.204951
      ESP Fit Center  201 is at   1.918557  2.223305  0.204951
      ESP Fit Center  202 is at   1.497670  2.200485  0.204951
      ESP Fit Center  203 is at   1.091529  2.087721  0.204951
      ESP Fit Center  204 is at   3.582129  1.095375 -0.204801
      ESP Fit Center  205 is at   3.364821  1.456545 -0.204801
      ESP Fit Center  206 is at   3.074952  1.762555 -0.204801
      ESP Fit Center  207 is at   2.726077  1.999098 -0.204801
      ESP Fit Center  208 is at   2.334509  2.155113 -0.204801
      ESP Fit Center  209 is at   1.918557  2.223305 -0.204801
      ESP Fit Center  210 is at   1.497670  2.200485 -0.204801
      ESP Fit Center  211 is at   1.091529  2.087721 -0.204801
      ESP Fit Center  212 is at   3.492496  1.085691 -0.605598
      ESP Fit Center  213 is at   3.270415  1.439130 -0.605598
      ESP Fit Center  214 is at   2.975255  1.734290 -0.605598
      ESP Fit Center  215 is at   2.621816  1.956371 -0.605598
      ESP Fit Center  216 is at   2.227821  2.094236 -0.605598
      ESP Fit Center  217 is at   1.813026  2.140972 -0.605598
      ESP Fit Center  218 is at   1.398231  2.094236 -0.605598
      ESP Fit Center  219 is at   1.004236  1.956371 -0.605598
      ESP Fit Center  220 is at   3.457108  0.699030 -0.979925
      ESP Fit Center  221 is at   3.300477  1.094635 -0.979925
      ESP Fit Center  222 is at   3.050384  1.438858 -0.979925
      ESP Fit Center  223 is at   2.722543  1.710072 -0.979925
      ESP Fit Center  224 is at   2.337554  1.891234 -0.979925
      ESP Fit Center  225 is at   1.919607  1.970961 -0.979925
      ESP Fit Center  226 is at   1.494963  1.944245 -0.979925
      ESP Fit Center  227 is at   1.090304  1.812763 -0.979925
      ESP Fit Center  228 is at   3.210589  0.687263 -1.311421
      ESP Fit Center  229 is at   3.038365  1.064379 -1.311421
      ESP Fit Center  230 is at   2.766872  1.377699 -1.311421
      ESP Fit Center  231 is at   2.418104  1.601838 -1.311421
      ESP Fit Center  232 is at   2.020316  1.718639 -1.311421
      ESP Fit Center  233 is at   1.605735  1.718639 -1.311421
      ESP Fit Center  234 is at   1.207947  1.601838 -1.311421
      ESP Fit Center  235 is at   2.965085  0.276901 -1.585598
      ESP Fit Center  236 is at   2.887289  0.693073 -1.585598
      ESP Fit Center  237 is at   2.664408  1.053038 -1.585598
      ESP Fit Center  238 is at   2.326543  1.308182 -1.585598
      ESP Fit Center  239 is at   1.919324  1.424046 -1.585598
      ESP Fit Center  240 is at   1.497750  1.384981 -1.585598
      ESP Fit Center  241 is at   1.118755  1.196264 -1.585598
      ESP Fit Center  242 is at   2.610230  0.276901 -1.790474
      ESP Fit Center  243 is at   2.503425  0.675503 -1.790474
      ESP Fit Center  244 is at   2.211628  0.967300 -1.790474
      ESP Fit Center  245 is at   1.813026  1.074105 -1.790474
      ESP Fit Center  246 is at   1.414424  0.967300 -1.790474
      ESP Fit Center  247 is at   1.122627  0.675503 -1.790474
      ESP Fit Center  248 is at   2.211628 -0.413498 -1.790474
      ESP Fit Center  249 is at   2.503425 -0.121701 -1.790474
      ESP Fit Center  250 is at   2.220533  0.276901 -1.917094
      ESP Fit Center  251 is at   2.016779  0.629812 -1.917094
      ESP Fit Center  252 is at   1.609272  0.629812 -1.917094
      ESP Fit Center  253 is at   1.405519  0.276901 -1.917094
      ESP Fit Center  254 is at   1.609272 -0.076010 -1.917094
      ESP Fit Center  255 is at   2.016779 -0.076010 -1.917094
      ESP Fit Center  256 is at   1.813026  0.276901 -1.959925
      ESP Fit Center  257 is at   0.581752 -1.108642  2.568997
      ESP Fit Center  258 is at   1.016568 -1.108642  2.511753
      ESP Fit Center  259 is at   0.799160 -0.732080  2.511753
      ESP Fit Center  260 is at   0.364344 -0.732080  2.511753
      ESP Fit Center  261 is at   0.146936 -1.108642  2.511753
      ESP Fit Center  262 is at   0.364344 -1.485204  2.511753
      ESP Fit Center  263 is at   0.799160 -1.485204  2.511753
      ESP Fit Center  264 is at   1.421752 -1.108642  2.343920
      ESP Fit Center  265 is at   1.309213 -0.688642  2.343920
      ESP Fit Center  266 is at   1.001752 -0.381181  2.343920
      ESP Fit Center  267 is at   0.581752 -0.268642  2.343920
      ESP Fit Center  268 is at   0.161752 -0.381181  2.343920
      ESP Fit Center  269 is at  -0.145710 -0.688642  2.343920
      ESP Fit Center  270 is at  -0.258248 -1.108642  2.343920
      ESP Fit Center  271 is at  -0.145710 -1.528642  2.343920
      ESP Fit Center  272 is at   0.161752 -1.836103  2.343920
      ESP Fit Center  273 is at   0.581752 -1.948642  2.343920
      ESP Fit Center  274 is at   1.001752 -1.836103  2.343920
      ESP Fit Center  275 is at   1.309213 -1.528642  2.343920
      ESP Fit Center  276 is at   1.769691 -1.108642  2.076937
      ESP Fit Center  277 is at   1.689472 -0.679509  2.076937
      ESP Fit Center  278 is at   1.459649 -0.308332  2.076937
      ESP Fit Center  279 is at   1.111262 -0.045242  2.076937
      ESP Fit Center  280 is at   0.691361  0.074230  2.076937
      ESP Fit Center  281 is at   0.256656  0.033949  2.076937
      ESP Fit Center  282 is at  -0.134142 -0.160646  2.076937
      ESP Fit Center  283 is at  -0.428255 -0.483273  2.076937
      ESP Fit Center  284 is at  -0.585961 -0.890359  2.076937
      ESP Fit Center  285 is at  -0.585961 -1.326925  2.076937
      ESP Fit Center  286 is at  -0.428255 -1.734012  2.076937
      ESP Fit Center  287 is at  -0.134142 -2.056638  2.076937
      ESP Fit Center  288 is at   0.256656 -2.251233  2.076937
      ESP Fit Center  289 is at   0.691361 -2.291514  2.076937
      ESP Fit Center  290 is at   1.111262 -2.172042  2.076937
      ESP Fit Center  291 is at   1.459649 -1.908952  2.076937
      ESP Fit Center  292 is at   1.689472 -1.537775  2.076937
      ESP Fit Center  293 is at   2.036674 -1.108642  1.728997
      ESP Fit Center  294 is at   1.972036 -0.679796  1.728997
      ESP Fit Center  295 is at  -0.856921 -0.891797  1.728997
      ESP Fit Center  296 is at  -0.856921 -1.325487  1.728997
      ESP Fit Center  297 is at  -0.729088 -1.739909  1.728997
      ESP Fit Center  298 is at  -0.484782 -2.098241  1.728997
      ESP Fit Center  299 is at  -0.145710 -2.368642  1.728997
      ESP Fit Center  300 is at   0.258001 -2.527087  1.728997
      ESP Fit Center  301 is at   0.690478 -2.559496  1.728997
      ESP Fit Center  302 is at   1.113294 -2.462991  1.728997
      ESP Fit Center  303 is at   1.488881 -2.246146  1.728997
      ESP Fit Center  304 is at   1.783865 -1.928229  1.728997
      ESP Fit Center  305 is at   1.972036 -1.537488  1.728997
      ESP Fit Center  306 is at  -0.985710 -1.528642  1.323813
      ESP Fit Center  307 is at  -0.823596 -1.920020  1.323813
      ESP Fit Center  308 is at  -0.565710 -2.256103  1.323813
      ESP Fit Center  309 is at  -0.229626 -2.513989  1.323813
      ESP Fit Center  310 is at   0.161752 -2.676103  1.323813
      ESP Fit Center  311 is at   0.581752 -2.731397  1.323813
      ESP Fit Center  312 is at   1.001752 -2.676103  1.323813
      ESP Fit Center  313 is at   1.393129 -2.513989  1.323813
      ESP Fit Center  314 is at   1.729213 -2.256103  1.323813
      ESP Fit Center  315 is at   1.987099 -1.920020  1.323813
      ESP Fit Center  316 is at   2.149213 -1.528642  1.323813
      ESP Fit Center  317 is at  -0.777397 -2.096121  0.888997
      ESP Fit Center  318 is at  -0.489121 -2.403104  0.888997
      ESP Fit Center  319 is at  -0.133558 -2.628751  0.888997
      ESP Fit Center  320 is at   0.266951 -2.758885  0.888997
      ESP Fit Center  321 is at   0.687240 -2.785327  0.888997
      ESP Fit Center  322 is at   1.100900 -2.706417  0.888997
      ESP Fit Center  323 is at   1.481941 -2.527113  0.888997
      ESP Fit Center  324 is at   1.806419 -2.258681  0.888997
      ESP Fit Center  325 is at   2.053947 -1.917988  0.888997
      ESP Fit Center  326 is at  -0.565710 -2.256103  0.454181
      ESP Fit Center  327 is at  -0.229626 -2.513989  0.454181
      ESP Fit Center  328 is at   0.161752 -2.676103  0.454181
      ESP Fit Center  329 is at   0.581752 -2.731397  0.454181
      ESP Fit Center  330 is at   1.001752 -2.676103  0.454181
      ESP Fit Center  331 is at   1.393129 -2.513989  0.454181
      ESP Fit Center  332 is at   1.729213 -2.256103  0.454181
      ESP Fit Center  333 is at  -0.566103 -2.257069 -0.453714
      ESP Fit Center  334 is at  -0.230019 -2.514955 -0.453714
      ESP Fit Center  335 is at   0.161359 -2.677069 -0.453714
      ESP Fit Center  336 is at   0.581359 -2.732363 -0.453714
      ESP Fit Center  337 is at   1.001359 -2.677069 -0.453714
      ESP Fit Center  338 is at   1.392736 -2.514955 -0.453714
      ESP Fit Center  339 is at   1.728820 -2.257069 -0.453714
      ESP Fit Center  340 is at  -0.777790 -2.097087 -0.888530
      ESP Fit Center  341 is at  -0.489514 -2.404070 -0.888530
      ESP Fit Center  342 is at  -0.133951 -2.629717 -0.888530
      ESP Fit Center  343 is at   0.266558 -2.759850 -0.888530
      ESP Fit Center  344 is at   0.686847 -2.786292 -0.888530
      ESP Fit Center  345 is at   1.100507 -2.707382 -0.888530
      ESP Fit Center  346 is at   1.481548 -2.528078 -0.888530
      ESP Fit Center  347 is at   1.806026 -2.259647 -0.888530
      ESP Fit Center  348 is at   2.053554 -1.918954 -0.888530
      ESP Fit Center  349 is at  -0.986103 -1.529607 -1.323346
      ESP Fit Center  350 is at  -0.823989 -1.920985 -1.323346
      ESP Fit Center  351 is at  -0.566103 -2.257069 -1.323346
      ESP Fit Center  352 is at  -0.230019 -2.514955 -1.323346
      ESP Fit Center  353 is at   0.161359 -2.677069 -1.323346
      ESP Fit Center  354 is at   0.581359 -2.732363 -1.323346
      ESP Fit Center  355 is at   1.001359 -2.677069 -1.323346
      ESP Fit Center  356 is at   1.392736 -2.514955 -1.323346
      ESP Fit Center  357 is at   1.728820 -2.257069 -1.323346
      ESP Fit Center  358 is at   1.986706 -1.920985 -1.323346
      ESP Fit Center  359 is at   2.148820 -1.529607 -1.323346
      ESP Fit Center  360 is at   2.036281 -1.109607 -1.728530
      ESP Fit Center  361 is at   1.971643 -0.680761 -1.728530
      ESP Fit Center  362 is at  -0.857314 -0.892762 -1.728530
      ESP Fit Center  363 is at  -0.857314 -1.326452 -1.728530
      ESP Fit Center  364 is at  -0.729481 -1.740875 -1.728530
      ESP Fit Center  365 is at  -0.485175 -2.099206 -1.728530
      ESP Fit Center  366 is at  -0.146103 -2.369607 -1.728530
      ESP Fit Center  367 is at   0.257608 -2.528052 -1.728530
      ESP Fit Center  368 is at   0.690085 -2.560462 -1.728530
      ESP Fit Center  369 is at   1.112902 -2.463957 -1.728530
      ESP Fit Center  370 is at   1.488488 -2.247112 -1.728530
      ESP Fit Center  371 is at   1.783472 -1.929195 -1.728530
      ESP Fit Center  372 is at   1.971643 -1.538453 -1.728530
      ESP Fit Center  373 is at   1.769298 -1.109607 -2.076469
      ESP Fit Center  374 is at   1.689079 -0.680474 -2.076469
      ESP Fit Center  375 is at   1.459256 -0.309298 -2.076469
      ESP Fit Center  376 is at   1.110869 -0.046208 -2.076469
      ESP Fit Center  377 is at   0.690968  0.073264 -2.076469
      ESP Fit Center  378 is at   0.256264  0.032983 -2.076469
      ESP Fit Center  379 is at  -0.134535 -0.161611 -2.076469
      ESP Fit Center  380 is at  -0.428648 -0.484238 -2.076469
      ESP Fit Center  381 is at  -0.586354 -0.891324 -2.076469
      ESP Fit Center  382 is at  -0.586354 -1.327891 -2.076469
      ESP Fit Center  383 is at  -0.428648 -1.734977 -2.076469
      ESP Fit Center  384 is at  -0.134535 -2.057604 -2.076469
      ESP Fit Center  385 is at   0.256264 -2.252198 -2.076469
      ESP Fit Center  386 is at   0.690968 -2.292479 -2.076469
      ESP Fit Center  387 is at   1.110869 -2.173007 -2.076469
      ESP Fit Center  388 is at   1.459256 -1.909917 -2.076469
      ESP Fit Center  389 is at   1.689079 -1.538741 -2.076469
      ESP Fit Center  390 is at   1.421359 -1.109607 -2.343453
      ESP Fit Center  391 is at   1.308820 -0.689607 -2.343453
      ESP Fit Center  392 is at   1.001359 -0.382146 -2.343453
      ESP Fit Center  393 is at   0.581359 -0.269607 -2.343453
      ESP Fit Center  394 is at   0.161359 -0.382146 -2.343453
      ESP Fit Center  395 is at  -0.146103 -0.689607 -2.343453
      ESP Fit Center  396 is at  -0.258641 -1.109607 -2.343453
      ESP Fit Center  397 is at  -0.146103 -1.529607 -2.343453
      ESP Fit Center  398 is at   0.161359 -1.837069 -2.343453
      ESP Fit Center  399 is at   0.581359 -1.949607 -2.343453
      ESP Fit Center  400 is at   1.001359 -1.837069 -2.343453
      ESP Fit Center  401 is at   1.308820 -1.529607 -2.343453
      ESP Fit Center  402 is at   1.016175 -1.109607 -2.511285
      ESP Fit Center  403 is at   0.798767 -0.733046 -2.511285
      ESP Fit Center  404 is at   0.363951 -0.733046 -2.511285
      ESP Fit Center  405 is at   0.146543 -1.109607 -2.511285
      ESP Fit Center  406 is at   0.363951 -1.486169 -2.511285
      ESP Fit Center  407 is at   0.798767 -1.486169 -2.511285
      ESP Fit Center  408 is at   0.581359 -1.109607 -2.568530
      ESP Fit Center  409 is at   0.564803  2.256305 -0.454628
      ESP Fit Center  410 is at   0.228720  2.514191 -0.454628
      ESP Fit Center  411 is at  -0.162658  2.676305 -0.454628
      ESP Fit Center  412 is at  -0.582658  2.731599 -0.454628
      ESP Fit Center  413 is at  -1.002658  2.676305 -0.454628
      ESP Fit Center  414 is at  -1.394036  2.514191 -0.454628
      ESP Fit Center  415 is at  -1.730119  2.256305 -0.454628
      ESP Fit Center  416 is at   0.889537  1.918190 -0.889444
      ESP Fit Center  417 is at   0.642009  2.258883 -0.889444
      ESP Fit Center  418 is at   0.317531  2.527315 -0.889444
      ESP Fit Center  419 is at  -0.063509  2.706619 -0.889444
      ESP Fit Center  420 is at  -0.477170  2.785529 -0.889444
      ESP Fit Center  421 is at  -0.897458  2.759086 -0.889444
      ESP Fit Center  422 is at  -1.297967  2.628953 -0.889444
      ESP Fit Center  423 is at  -1.653530  2.403306 -0.889444
      ESP Fit Center  424 is at  -1.941806  2.096323 -0.889444
      ESP Fit Center  425 is at   0.984803  1.528844 -1.324260
      ESP Fit Center  426 is at   0.822690  1.920222 -1.324260
      ESP Fit Center  427 is at   0.564803  2.256305 -1.324260
      ESP Fit Center  428 is at   0.228720  2.514191 -1.324260
      ESP Fit Center  429 is at  -0.162658  2.676305 -1.324260
      ESP Fit Center  430 is at  -0.582658  2.731599 -1.324260
      ESP Fit Center  431 is at  -1.002658  2.676305 -1.324260
      ESP Fit Center  432 is at  -1.394036  2.514191 -1.324260
      ESP Fit Center  433 is at  -1.730119  2.256305 -1.324260
      ESP Fit Center  434 is at  -1.988005  1.920222 -1.324260
      ESP Fit Center  435 is at  -2.150119  1.528844 -1.324260
      ESP Fit Center  436 is at   0.872265  1.108844 -1.729444
      ESP Fit Center  437 is at   0.807627  1.537690 -1.729444
      ESP Fit Center  438 is at   0.619456  1.928431 -1.729444
      ESP Fit Center  439 is at   0.324472  2.246348 -1.729444
      ESP Fit Center  440 is at  -0.051115  2.463193 -1.729444
      ESP Fit Center  441 is at  -0.473931  2.559698 -1.729444
      ESP Fit Center  442 is at  -0.906409  2.527289 -1.729444
      ESP Fit Center  443 is at  -1.310119  2.368844 -1.729444
      ESP Fit Center  444 is at  -1.649192  2.098443 -1.729444
      ESP Fit Center  445 is at  -1.893498  1.740111 -1.729444
      ESP Fit Center  446 is at  -2.021330  1.325689 -1.729444
      ESP Fit Center  447 is at  -2.021330  0.891999 -1.729444
      ESP Fit Center  448 is at   0.605282  1.108844 -2.077383
      ESP Fit Center  449 is at   0.525063  1.537977 -2.077383
      ESP Fit Center  450 is at   0.295240  1.909153 -2.077383
      ESP Fit Center  451 is at  -0.053148  2.172244 -2.077383
      ESP Fit Center  452 is at  -0.473049  2.291716 -2.077383
      ESP Fit Center  453 is at  -0.907753  2.251434 -2.077383
      ESP Fit Center  454 is at  -1.298551  2.056840 -2.077383
      ESP Fit Center  455 is at  -1.592664  1.734213 -2.077383
      ESP Fit Center  456 is at  -1.750370  1.327127 -2.077383
      ESP Fit Center  457 is at  -1.750370  0.890561 -2.077383
      ESP Fit Center  458 is at  -1.592664  0.483474 -2.077383
      ESP Fit Center  459 is at  -1.298551  0.160848 -2.077383
      ESP Fit Center  460 is at  -0.907753 -0.033747 -2.077383
      ESP Fit Center  461 is at  -0.473049 -0.074028 -2.077383
      ESP Fit Center  462 is at  -0.053148  0.045444 -2.077383
      ESP Fit Center  463 is at   0.295240  0.308534 -2.077383
      ESP Fit Center  464 is at   0.525063  0.679711 -2.077383
      ESP Fit Center  465 is at   0.257342  1.108844 -2.344366
      ESP Fit Center  466 is at   0.144803  1.528844 -2.344366
      ESP Fit Center  467 is at  -0.162658  1.836305 -2.344366
      ESP Fit Center  468 is at  -0.582658  1.948844 -2.344366
      ESP Fit Center  469 is at  -1.002658  1.836305 -2.344366
      ESP Fit Center  470 is at  -1.310119  1.528844 -2.344366
      ESP Fit Center  471 is at  -1.422658  1.108844 -2.344366
      ESP Fit Center  472 is at  -1.310119  0.688844 -2.344366
      ESP Fit Center  473 is at  -1.002658  0.381382 -2.344366
      ESP Fit Center  474 is at  -0.582658  0.268844 -2.344366
      ESP Fit Center  475 is at  -0.162658  0.381382 -2.344366
      ESP Fit Center  476 is at   0.144803  0.688844 -2.344366
      ESP Fit Center  477 is at  -0.147842  1.108844 -2.512199
      ESP Fit Center  478 is at  -0.365250  1.485406 -2.512199
      ESP Fit Center  479 is at  -0.800066  1.485406 -2.512199
      ESP Fit Center  480 is at  -1.017474  1.108844 -2.512199
      ESP Fit Center  481 is at  -0.800066  0.732282 -2.512199
      ESP Fit Center  482 is at  -0.365250  0.732282 -2.512199
      ESP Fit Center  483 is at  -0.582658  1.108844 -2.569444
      ESP Fit Center  484 is at  -0.582087  1.109818  2.569097
      ESP Fit Center  485 is at  -0.147271  1.109818  2.511852
      ESP Fit Center  486 is at  -0.364679  1.486380  2.511852
      ESP Fit Center  487 is at  -0.799495  1.486380  2.511852
      ESP Fit Center  488 is at  -1.016903  1.109818  2.511852
      ESP Fit Center  489 is at  -0.799495  0.733256  2.511852
      ESP Fit Center  490 is at  -0.364679  0.733256  2.511852
      ESP Fit Center  491 is at   0.257913  1.109818  2.344019
      ESP Fit Center  492 is at   0.145374  1.529818  2.344019
      ESP Fit Center  493 is at  -0.162087  1.837279  2.344019
      ESP Fit Center  494 is at  -0.582087  1.949818  2.344019
      ESP Fit Center  495 is at  -1.002087  1.837279  2.344019
      ESP Fit Center  496 is at  -1.309549  1.529818  2.344019
      ESP Fit Center  497 is at  -1.422087  1.109818  2.344019
      ESP Fit Center  498 is at  -1.309549  0.689818  2.344019
      ESP Fit Center  499 is at  -1.002087  0.382357  2.344019
      ESP Fit Center  500 is at  -0.582087  0.269818  2.344019
      ESP Fit Center  501 is at  -0.162087  0.382357  2.344019
      ESP Fit Center  502 is at   0.145374  0.689818  2.344019
      ESP Fit Center  503 is at   0.605852  1.109818  2.077036
      ESP Fit Center  504 is at   0.525633  1.538951  2.077036
      ESP Fit Center  505 is at   0.295811  1.910127  2.077036
      ESP Fit Center  506 is at  -0.052577  2.173218  2.077036
      ESP Fit Center  507 is at  -0.472478  2.292690  2.077036
      ESP Fit Center  508 is at  -0.907182  2.252408  2.077036
      ESP Fit Center  509 is at  -1.297981  2.057814  2.077036
      ESP Fit Center  510 is at  -1.592094  1.735187  2.077036
      ESP Fit Center  511 is at  -1.749800  1.328101  2.077036
      ESP Fit Center  512 is at  -1.749800  0.891535  2.077036
      ESP Fit Center  513 is at  -1.592094  0.484448  2.077036
      ESP Fit Center  514 is at  -1.297981  0.161822  2.077036
      ESP Fit Center  515 is at  -0.907182 -0.032773  2.077036
      ESP Fit Center  516 is at  -0.472478 -0.073054  2.077036
      ESP Fit Center  517 is at  -0.052577  0.046418  2.077036
      ESP Fit Center  518 is at   0.295811  0.309508  2.077036
      ESP Fit Center  519 is at   0.525633  0.680685  2.077036
      ESP Fit Center  520 is at   0.872835  1.109818  1.729097
      ESP Fit Center  521 is at   0.808197  1.538664  1.729097
      ESP Fit Center  522 is at   0.620026  1.929405  1.729097
      ESP Fit Center  523 is at   0.325042  2.247322  1.729097
      ESP Fit Center  524 is at  -0.050544  2.464167  1.729097
      ESP Fit Center  525 is at  -0.473361  2.560672  1.729097
      ESP Fit Center  526 is at  -0.905838  2.528263  1.729097
      ESP Fit Center  527 is at  -1.309549  2.369818  1.729097
      ESP Fit Center  528 is at  -1.648621  2.099417  1.729097
      ESP Fit Center  529 is at  -1.892927  1.741085  1.729097
      ESP Fit Center  530 is at  -2.020760  1.326663  1.729097
      ESP Fit Center  531 is at  -2.020760  0.892973  1.729097
      ESP Fit Center  532 is at   0.985374  1.529818  1.323913
      ESP Fit Center  533 is at   0.823260  1.921196  1.323913
      ESP Fit Center  534 is at   0.565374  2.257279  1.323913
      ESP Fit Center  535 is at   0.229291  2.515165  1.323913
      ESP Fit Center  536 is at  -0.162087  2.677279  1.323913
      ESP Fit Center  537 is at  -0.582087  2.732573  1.323913
      ESP Fit Center  538 is at  -1.002087  2.677279  1.323913
      ESP Fit Center  539 is at  -1.393465  2.515165  1.323913
      ESP Fit Center  540 is at  -1.729549  2.257279  1.323913
      ESP Fit Center  541 is at  -1.987435  1.921196  1.323913
      ESP Fit Center  542 is at  -2.149549  1.529818  1.323913
      ESP Fit Center  543 is at   0.890108  1.919164  0.889097
      ESP Fit Center  544 is at   0.642580  2.259857  0.889097
      ESP Fit Center  545 is at   0.318102  2.528289  0.889097
      ESP Fit Center  546 is at  -0.062939  2.707593  0.889097
      ESP Fit Center  547 is at  -0.476599  2.786503  0.889097
      ESP Fit Center  548 is at  -0.896888  2.760060  0.889097
      ESP Fit Center  549 is at  -1.297396  2.629927  0.889097
      ESP Fit Center  550 is at  -1.652959  2.404280  0.889097
      ESP Fit Center  551 is at  -1.941236  2.097297  0.889097
      ESP Fit Center  552 is at   0.565374  2.257279  0.454281
      ESP Fit Center  553 is at   0.229291  2.515165  0.454281
      ESP Fit Center  554 is at  -0.162087  2.677279  0.454281
      ESP Fit Center  555 is at  -0.582087  2.732573  0.454281
      ESP Fit Center  556 is at  -1.002087  2.677279  0.454281
      ESP Fit Center  557 is at  -1.393465  2.515165  0.454281
      ESP Fit Center  558 is at  -1.729549  2.257279  0.454281
      ESP Fit Center  559 is at  -2.308985  0.772457  1.622655
      ESP Fit Center  560 is at  -2.743801  0.772457  1.622655
      ESP Fit Center  561 is at  -2.961209  0.395896  1.622655
      ESP Fit Center  562 is at  -2.526393  1.235896  1.454823
      ESP Fit Center  563 is at  -2.946393  1.123357  1.454823
      ESP Fit Center  564 is at  -3.253855  0.815896  1.454823
      ESP Fit Center  565 is at  -3.366393  0.395896  1.454823
      ESP Fit Center  566 is at  -3.253855 -0.024104  1.454823
      ESP Fit Center  567 is at  -2.416784  1.578767  1.187839
      ESP Fit Center  568 is at  -2.851488  1.538486  1.187839
      ESP Fit Center  569 is at  -3.242287  1.343892  1.187839
      ESP Fit Center  570 is at  -3.536400  1.021265  1.187839
      ESP Fit Center  571 is at  -3.694106  0.614179  1.187839
      ESP Fit Center  572 is at  -3.694106  0.177612  1.187839
      ESP Fit Center  573 is at  -3.536400 -0.229474  1.187839
      ESP Fit Center  574 is at  -2.417667  1.846750  0.839900
      ESP Fit Center  575 is at  -2.850144  1.814340  0.839900
      ESP Fit Center  576 is at  -3.253855  1.655896  0.839900
      ESP Fit Center  577 is at  -3.592927  1.385494  0.839900
      ESP Fit Center  578 is at  -3.837233  1.027163  0.839900
      ESP Fit Center  579 is at  -3.965066  0.612740  0.839900
      ESP Fit Center  580 is at  -3.965066  0.179051  0.839900
      ESP Fit Center  581 is at  -3.837233 -0.235372  0.839900
      ESP Fit Center  582 is at  -3.592927 -0.593703  0.839900
      ESP Fit Center  583 is at  -2.106393  1.963357  0.434716
      ESP Fit Center  584 is at  -2.526393  2.018651  0.434716
      ESP Fit Center  585 is at  -2.946393  1.963357  0.434716
      ESP Fit Center  586 is at  -3.337771  1.801243  0.434716
      ESP Fit Center  587 is at  -3.673855  1.543357  0.434716
      ESP Fit Center  588 is at  -3.931741  1.207273  0.434716
      ESP Fit Center  589 is at  -4.093855  0.815896  0.434716
      ESP Fit Center  590 is at  -4.149149  0.395896  0.434716
      ESP Fit Center  591 is at  -4.093855 -0.024104  0.434716
      ESP Fit Center  592 is at  -3.931741 -0.415482  0.434716
      ESP Fit Center  593 is at  -3.673855 -0.751566  0.434716
      ESP Fit Center  594 is at  -2.420905  2.072580 -0.000100
      ESP Fit Center  595 is at  -2.841194  2.046138 -0.000100
      ESP Fit Center  596 is at  -3.241703  1.916005 -0.000100
      ESP Fit Center  597 is at  -3.597266  1.690358 -0.000100
      ESP Fit Center  598 is at  -3.885542  1.383375 -0.000100
      ESP Fit Center  599 is at  -4.088418  1.014345 -0.000100
      ESP Fit Center  600 is at  -4.193146  0.606455 -0.000100
      ESP Fit Center  601 is at  -4.193146  0.185336 -0.000100
      ESP Fit Center  602 is at  -4.088418 -0.222554 -0.000100
      ESP Fit Center  603 is at  -3.885542 -0.591584 -0.000100
      ESP Fit Center  604 is at  -2.106393  1.963357 -0.434916
      ESP Fit Center  605 is at  -2.526393  2.018651 -0.434916
      ESP Fit Center  606 is at  -2.946393  1.963357 -0.434916
      ESP Fit Center  607 is at  -3.337771  1.801243 -0.434916
      ESP Fit Center  608 is at  -3.673855  1.543357 -0.434916
      ESP Fit Center  609 is at  -3.931741  1.207273 -0.434916
      ESP Fit Center  610 is at  -4.093855  0.815896 -0.434916
      ESP Fit Center  611 is at  -4.149149  0.395896 -0.434916
      ESP Fit Center  612 is at  -4.093855 -0.024104 -0.434916
      ESP Fit Center  613 is at  -3.931741 -0.415482 -0.434916
      ESP Fit Center  614 is at  -3.673855 -0.751566 -0.434916
      ESP Fit Center  615 is at  -2.417667  1.846750 -0.840100
      ESP Fit Center  616 is at  -2.850144  1.814340 -0.840100
      ESP Fit Center  617 is at  -3.253855  1.655896 -0.840100
      ESP Fit Center  618 is at  -3.592927  1.385494 -0.840100
      ESP Fit Center  619 is at  -3.837233  1.027163 -0.840100
      ESP Fit Center  620 is at  -3.965066  0.612740 -0.840100
      ESP Fit Center  621 is at  -3.965066  0.179051 -0.840100
      ESP Fit Center  622 is at  -3.837233 -0.235372 -0.840100
      ESP Fit Center  623 is at  -3.592927 -0.593703 -0.840100
      ESP Fit Center  624 is at  -2.416784  1.578767 -1.188039
      ESP Fit Center  625 is at  -2.851488  1.538486 -1.188039
      ESP Fit Center  626 is at  -3.242287  1.343892 -1.188039
      ESP Fit Center  627 is at  -3.536400  1.021265 -1.188039
      ESP Fit Center  628 is at  -3.694106  0.614179 -1.188039
      ESP Fit Center  629 is at  -3.694106  0.177612 -1.188039
      ESP Fit Center  630 is at  -3.536400 -0.229474 -1.188039
      ESP Fit Center  631 is at  -2.526393  1.235896 -1.455023
      ESP Fit Center  632 is at  -2.946393  1.123357 -1.455023
      ESP Fit Center  633 is at  -3.253855  0.815896 -1.455023
      ESP Fit Center  634 is at  -3.366393  0.395896 -1.455023
      ESP Fit Center  635 is at  -3.253855 -0.024104 -1.455023
      ESP Fit Center  636 is at  -2.308985  0.772457 -1.622855
      ESP Fit Center  637 is at  -2.743801  0.772457 -1.622855
      ESP Fit Center  638 is at  -2.961209  0.395896 -1.622855
      ESP Fit Center  639 is at   2.960499 -0.395649  1.623402
      ESP Fit Center  640 is at   2.308275 -0.772211  1.623402
      ESP Fit Center  641 is at   2.743091 -0.772211  1.623402
      ESP Fit Center  642 is at   3.365683 -0.395649  1.455570
      ESP Fit Center  643 is at   3.253144  0.024351  1.455570
      ESP Fit Center  644 is at   2.525683 -1.235649  1.455570
      ESP Fit Center  645 is at   2.945683 -1.123111  1.455570
      ESP Fit Center  646 is at   3.253144 -0.815649  1.455570
      ESP Fit Center  647 is at   3.713622 -0.395649  1.188586
      ESP Fit Center  648 is at   3.633403  0.033484  1.188586
      ESP Fit Center  649 is at   3.403580  0.404660  1.188586
      ESP Fit Center  650 is at   2.200588 -1.538240  1.188586
      ESP Fit Center  651 is at   2.635292 -1.578521  1.188586
      ESP Fit Center  652 is at   3.055193 -1.459049  1.188586
      ESP Fit Center  653 is at   3.403580 -1.195959  1.188586
      ESP Fit Center  654 is at   3.633403 -0.824782  1.188586
      ESP Fit Center  655 is at   3.980605 -0.395649  0.840647
      ESP Fit Center  656 is at   3.915967  0.033197  0.840647
      ESP Fit Center  657 is at   3.727796  0.423938  0.840647
      ESP Fit Center  658 is at   2.201932 -1.814094  0.840647
      ESP Fit Center  659 is at   2.634409 -1.846504  0.840647
      ESP Fit Center  660 is at   3.057226 -1.749999  0.840647
      ESP Fit Center  661 is at   3.432812 -1.533154  0.840647
      ESP Fit Center  662 is at   3.727796 -1.215236  0.840647
      ESP Fit Center  663 is at   3.915967 -0.824495  0.840647
      ESP Fit Center  664 is at   4.148438 -0.395649  0.435463
      ESP Fit Center  665 is at   4.093144  0.024351  0.435463
      ESP Fit Center  666 is at   3.931030  0.415728  0.435463
      ESP Fit Center  667 is at   3.673144  0.751812  0.435463
      ESP Fit Center  668 is at   2.105683 -1.963111  0.435463
      ESP Fit Center  669 is at   2.525683 -2.018405  0.435463
      ESP Fit Center  670 is at   2.945683 -1.963111  0.435463
      ESP Fit Center  671 is at   3.337060 -1.800997  0.435463
      ESP Fit Center  672 is at   3.673144 -1.543111  0.435463
      ESP Fit Center  673 is at   3.931030 -1.207027  0.435463
      ESP Fit Center  674 is at   4.093144 -0.815649  0.435463
      ESP Fit Center  675 is at   4.205683 -0.395649  0.000647
      ESP Fit Center  676 is at   4.152902  0.022150  0.000647
      ESP Fit Center  677 is at   3.997878  0.413697  0.000647
      ESP Fit Center  678 is at   3.750350  0.754390  0.000647
      ESP Fit Center  679 is at   2.210882 -2.045892  0.000647
      ESP Fit Center  680 is at   2.631171 -2.072334  0.000647
      ESP Fit Center  681 is at   3.044831 -1.993424  0.000647
      ESP Fit Center  682 is at   3.425872 -1.814120  0.000647
      ESP Fit Center  683 is at   3.750350 -1.545688  0.000647
      ESP Fit Center  684 is at   3.997878 -1.204995  0.000647
      ESP Fit Center  685 is at   4.152902 -0.813448  0.000647
      ESP Fit Center  686 is at   4.148438 -0.395649 -0.434169
      ESP Fit Center  687 is at   4.093144  0.024351 -0.434169
      ESP Fit Center  688 is at   3.931030  0.415728 -0.434169
      ESP Fit Center  689 is at   3.673144  0.751812 -0.434169
      ESP Fit Center  690 is at   2.105683 -1.963111 -0.434169
      ESP Fit Center  691 is at   2.525683 -2.018405 -0.434169
      ESP Fit Center  692 is at   2.945683 -1.963111 -0.434169
      ESP Fit Center  693 is at   3.337060 -1.800997 -0.434169
      ESP Fit Center  694 is at   3.673144 -1.543111 -0.434169
      ESP Fit Center  695 is at   3.931030 -1.207027 -0.434169
      ESP Fit Center  696 is at   4.093144 -0.815649 -0.434169
      ESP Fit Center  697 is at   3.980605 -0.395649 -0.839353
      ESP Fit Center  698 is at   3.915967  0.033197 -0.839353
      ESP Fit Center  699 is at   3.727796  0.423938 -0.839353
      ESP Fit Center  700 is at   2.201932 -1.814094 -0.839353
      ESP Fit Center  701 is at   2.634409 -1.846504 -0.839353
      ESP Fit Center  702 is at   3.057226 -1.749999 -0.839353
      ESP Fit Center  703 is at   3.432812 -1.533154 -0.839353
      ESP Fit Center  704 is at   3.727796 -1.215236 -0.839353
      ESP Fit Center  705 is at   3.915967 -0.824495 -0.839353
      ESP Fit Center  706 is at   3.713622 -0.395649 -1.187292
      ESP Fit Center  707 is at   3.633403  0.033484 -1.187292
      ESP Fit Center  708 is at   3.403580  0.404660 -1.187292
      ESP Fit Center  709 is at   2.200588 -1.538240 -1.187292
      ESP Fit Center  710 is at   2.635292 -1.578521 -1.187292
      ESP Fit Center  711 is at   3.055193 -1.459049 -1.187292
      ESP Fit Center  712 is at   3.403580 -1.195959 -1.187292
      ESP Fit Center  713 is at   3.633403 -0.824782 -1.187292
      ESP Fit Center  714 is at   3.365683 -0.395649 -1.454276
      ESP Fit Center  715 is at   3.253144  0.024351 -1.454276
      ESP Fit Center  716 is at   2.525683 -1.235649 -1.454276
      ESP Fit Center  717 is at   2.945683 -1.123111 -1.454276
      ESP Fit Center  718 is at   3.253144 -0.815649 -1.454276
      ESP Fit Center  719 is at   2.960499 -0.395649 -1.622108
      ESP Fit Center  720 is at   2.308275 -0.772211 -1.622108
      ESP Fit Center  721 is at   2.743091 -0.772211 -1.622108
      ESP Fit Center  722 is at   1.015666  0.235701  2.254962
      ESP Fit Center  723 is at   0.605242  0.345674  2.254962
      ESP Fit Center  724 is at   2.078884 -2.323064  0.416455
      ESP Fit Center  725 is at  -0.594758 -2.553636 -0.000300
      ESP Fit Center  726 is at  -0.215606 -2.730437 -0.000300
      ESP Fit Center  727 is at   0.188486 -2.838713 -0.000300
      ESP Fit Center  728 is at   0.605242 -2.875175 -0.000300
      ESP Fit Center  729 is at   1.021998 -2.838713 -0.000300
      ESP Fit Center  730 is at   1.426090 -2.730437 -0.000300
      ESP Fit Center  731 is at   1.805242 -2.553636 -0.000300
      ESP Fit Center  732 is at   2.147932 -2.313681 -0.000300
      ESP Fit Center  733 is at   2.078884 -2.323064 -0.417056
      ESP Fit Center  734 is at   1.015666  0.235701 -2.255563
      ESP Fit Center  735 is at   0.605242  0.345674 -2.255563
      ESP Fit Center  736 is at  -1.015624 -0.235764  2.254952
      ESP Fit Center  737 is at  -0.605199 -0.345736  2.254952
      ESP Fit Center  738 is at   0.868443  2.323001  0.416445
      ESP Fit Center  739 is at  -1.907266  2.447658  0.416445
      ESP Fit Center  740 is at   0.594801  2.553573 -0.000310
      ESP Fit Center  741 is at   0.215649  2.730374 -0.000310
      ESP Fit Center  742 is at  -0.188444  2.838650 -0.000310
      ESP Fit Center  743 is at  -0.605199  2.875112 -0.000310
      ESP Fit Center  744 is at  -1.021955  2.838650 -0.000310
      ESP Fit Center  745 is at  -1.426048  2.730374 -0.000310
      ESP Fit Center  746 is at  -1.805199  2.553573 -0.000310
      ESP Fit Center  747 is at  -2.147890  2.313619 -0.000310
      ESP Fit Center  748 is at   0.868443  2.323001 -0.417066
      ESP Fit Center  749 is at  -1.907266  2.447658 -0.417066
      ESP Fit Center  750 is at  -1.015624 -0.235764 -2.255573
      ESP Fit Center  751 is at  -0.605199 -0.345736 -2.255573
      ESP Fit Center  752 is at  -1.812765 -0.276936  2.240299
      ESP Fit Center  753 is at  -1.401166 -0.276936  2.202159
      ESP Fit Center  754 is at  -1.606965  0.079519  2.202159
      ESP Fit Center  755 is at  -2.018564  0.079519  2.202159
      ESP Fit Center  756 is at  -2.224364 -0.276936  2.202159
      ESP Fit Center  757 is at  -2.018564 -0.633391  2.202159
      ESP Fit Center  758 is at  -1.606965 -0.633391  2.202159
      ESP Fit Center  759 is at  -2.217355  0.423835  2.089037
      ESP Fit Center  760 is at  -2.513536  0.127654  2.089037
      ESP Fit Center  761 is at  -2.621946 -0.276936  2.089037
      ESP Fit Center  762 is at  -2.513536 -0.681527  2.089037
      ESP Fit Center  763 is at  -2.217355 -0.977708  2.089037
      ESP Fit Center  764 is at  -1.812765 -1.086118  2.089037
      ESP Fit Center  765 is at  -1.408174 -0.977708  2.089037
      ESP Fit Center  766 is at  -1.111993 -0.681527  2.089037
      ESP Fit Center  767 is at  -2.523396  0.664092  1.904786
      ESP Fit Center  768 is at  -2.815348  0.343837  1.904786
      ESP Fit Center  769 is at  -2.971894 -0.060257  1.904786
      ESP Fit Center  770 is at  -2.971894 -0.493615  1.904786
      ESP Fit Center  771 is at  -2.815348 -0.897709  1.904786
[...]
 2928 Fit      -0.012354
 2929 Fit      -0.012573
 2930 Fit      -0.010876
 2931 Fit      -0.002252
 2932 Fit      -0.003924
 2933 Fit      -0.007858
 2934 Fit      -0.010323
 2935 Fit      -0.009847
 2936 Fit      -0.005488
 2937 Fit      -0.008039
 2938 Fit      -0.000742
 2939 Fit      -0.000087
 2940 Fit      -0.001184
 2941 Fit      -0.001636
 2942 Fit      -0.001655
 2943 Fit      -0.000719
 2944 Fit       0.000270
 2945 Fit       0.000498
 2946 Fit      -0.001097
 2947 Fit      -0.002199
 2948 Fit      -0.002315
 2949 Fit      -0.002312
 2950 Fit      -0.002776
 2951 Fit      -0.003037
 2952 Fit      -0.002380
 2953 Fit      -0.001026
 2954 Fit       0.000383
 2955 Fit       0.001335
 2956 Fit       0.001445
 2957 Fit       0.001230
 2958 Fit      -0.000925
 2959 Fit      -0.003060
 2960 Fit      -0.004063
 2961 Fit      -0.003677
 2962 Fit      -0.002810
 2963 Fit      -0.002606
 2964 Fit      -0.003420
 2965 Fit      -0.004612
 2966 Fit      -0.005185
 2967 Fit      -0.004661
 2968 Fit      -0.003299
 2969 Fit      -0.001608
 2970 Fit       0.000031
 2971 Fit       0.001414
 2972 Fit       0.002412
 2973 Fit       0.002869
 2974 Fit       0.002547
 2975 Fit       0.002416
 2976 Fit      -0.000495
 2977 Fit      -0.008334
 2978 Fit      -0.008426
 2979 Fit      -0.007178
 2980 Fit      -0.005225
 2981 Fit      -0.003108
 2982 Fit      -0.001119
 2983 Fit       0.000628
 2984 Fit       0.002109
 2985 Fit       0.003310
 2986 Fit       0.004169
 2987 Fit       0.004520
 2988 Fit       0.004058
 2989 Fit       0.004552
 2990 Fit      -0.011649
 2991 Fit      -0.008855
 2992 Fit      -0.006010
 2993 Fit      -0.003428
 2994 Fit      -0.001188
 2995 Fit       0.000735
 2996 Fit       0.002400
 2997 Fit       0.003862
 2998 Fit       0.005136
 2999 Fit       0.006158
 3000 Fit       0.006719
 3001 Fit       0.006393
 3002 Fit      -0.014004
 3003 Fit      -0.009985
 3004 Fit      -0.006548
 3005 Fit      -0.003681
 3006 Fit      -0.001287
 3007 Fit       0.000755
 3008 Fit       0.002557
 3009 Fit       0.004214
 3010 Fit       0.005798
 3011 Fit       0.007340
 3012 Fit       0.008779
 3013 Fit       0.009885
 3014 Fit       0.010112
 3015 Fit      -0.014251
 3016 Fit      -0.009518
 3017 Fit      -0.005813
 3018 Fit      -0.002854
 3019 Fit      -0.000410
 3020 Fit       0.001704
 3021 Fit       0.003644
 3022 Fit       0.005542
 3023 Fit       0.007517
 3024 Fit       0.009658
 3025 Fit       0.011985
 3026 Fit      -0.013096
 3027 Fit      -0.008355
 3028 Fit      -0.004739
 3029 Fit      -0.001859
 3030 Fit       0.000563
 3031 Fit       0.002737
 3032 Fit       0.004842
 3033 Fit       0.007050
 3034 Fit       0.009538
 3035 Fit       0.012499
 3036 Fit      -0.013120
 3037 Fit      -0.008166
 3038 Fit      -0.004445
 3039 Fit      -0.001485
 3040 Fit       0.001036
 3041 Fit       0.003361
 3042 Fit       0.005707
 3043 Fit       0.008297
 3044 Fit       0.011397
 3045 Fit      -0.006092
 3046 Fit      -0.002572
 3047 Fit       0.000325
 3048 Fit       0.002942
 3049 Fit      -0.006092
 3050 Fit      -0.002573
 3051 Fit       0.000325
 3052 Fit       0.002942
 3053 Fit      -0.013120
 3054 Fit      -0.008166
 3055 Fit      -0.004445
 3056 Fit      -0.001485
 3057 Fit       0.001036
 3058 Fit       0.003361
 3059 Fit       0.005707
 3060 Fit       0.008296
 3061 Fit       0.011396
 3062 Fit      -0.013095
 3063 Fit      -0.008354
 3064 Fit      -0.004739
 3065 Fit      -0.001859
 3066 Fit       0.000563
 3067 Fit       0.002736
 3068 Fit       0.004841
 3069 Fit       0.007049
 3070 Fit       0.009537
 3071 Fit       0.012498
 3072 Fit      -0.014250
 3073 Fit      -0.009517
 3074 Fit      -0.005812
 3075 Fit      -0.002854
 3076 Fit      -0.000410
 3077 Fit       0.001704
 3078 Fit       0.003643
 3079 Fit       0.005541
 3080 Fit       0.007516
 3081 Fit       0.009656
 3082 Fit       0.011983
 3083 Fit      -0.014001
 3084 Fit      -0.009983
 3085 Fit      -0.006547
 3086 Fit      -0.003681
 3087 Fit      -0.001287
 3088 Fit       0.000755
 3089 Fit       0.002556
 3090 Fit       0.004213
 3091 Fit       0.005797
 3092 Fit       0.007339
 3093 Fit       0.008778
 3094 Fit       0.009882
 3095 Fit       0.010109
 3096 Fit       0.004548
 3097 Fit      -0.011646
 3098 Fit      -0.008853
 3099 Fit      -0.006009
 3100 Fit      -0.003427
 3101 Fit      -0.001188
 3102 Fit       0.000735
 3103 Fit       0.002400
 3104 Fit       0.003861
 3105 Fit       0.005135
 3106 Fit       0.006157
 3107 Fit       0.006717
 3108 Fit       0.006390
 3109 Fit       0.002414
 3110 Fit      -0.000497
 3111 Fit      -0.008329
 3112 Fit      -0.008422
 3113 Fit      -0.007176
 3114 Fit      -0.005224
 3115 Fit      -0.003107
 3116 Fit      -0.001119
 3117 Fit       0.000628
 3118 Fit       0.002109
 3119 Fit       0.003309
 3120 Fit       0.004168
 3121 Fit       0.004519
 3122 Fit       0.004056
 3123 Fit       0.001228
 3124 Fit      -0.000927
 3125 Fit      -0.003061
 3126 Fit      -0.004063
 3127 Fit      -0.003677
 3128 Fit      -0.002808
 3129 Fit      -0.002604
 3130 Fit      -0.003417
 3131 Fit      -0.004609
 3132 Fit      -0.005182
 3133 Fit      -0.004659
 3134 Fit      -0.003298
 3135 Fit      -0.001608
 3136 Fit       0.000032
 3137 Fit       0.001414
 3138 Fit       0.002412
 3139 Fit       0.002868
 3140 Fit       0.002546
 3141 Fit       0.000497
 3142 Fit      -0.001098
 3143 Fit      -0.002199
 3144 Fit      -0.002314
 3145 Fit      -0.002310
 3146 Fit      -0.002773
 3147 Fit      -0.003035
 3148 Fit      -0.002379
 3149 Fit      -0.001025
 3150 Fit       0.000384
 3151 Fit       0.001335
 3152 Fit       0.001445
 3153 Fit      -0.000087
 3154 Fit      -0.001183
 3155 Fit      -0.001635
 3156 Fit      -0.001653
 3157 Fit      -0.000718
 3158 Fit       0.000270
 3159 Fit      -0.000741
 3160 Fit      -0.008227
 3161 Fit      -0.004228
 3162 Fit      -0.001069
 3163 Fit       0.001650
 3164 Fit       0.004237
 3165 Fit      -0.013119
 3166 Fit      -0.008165
 3167 Fit      -0.004445
 3168 Fit      -0.001484
 3169 Fit       0.001037
 3170 Fit       0.003362
 3171 Fit       0.005708
 3172 Fit       0.008298
 3173 Fit       0.011399
 3174 Fit      -0.010553
 3175 Fit      -0.006433
 3176 Fit      -0.003225
 3177 Fit      -0.000604
 3178 Fit       0.001670
 3179 Fit       0.003788
 3180 Fit       0.005923
 3181 Fit       0.008249
 3182 Fit       0.010949
 3183 Fit       0.014222
 3184 Fit      -0.011736
 3185 Fit      -0.007555
 3186 Fit      -0.004255
 3187 Fit      -0.001579
 3188 Fit       0.000679
 3189 Fit       0.002688
 3190 Fit       0.004591
 3191 Fit       0.006515
 3192 Fit       0.008565
 3193 Fit       0.010805
 3194 Fit       0.013184
 3195 Fit      -0.011927
 3196 Fit      -0.008190
 3197 Fit      -0.005047
 3198 Fit      -0.002431
 3199 Fit      -0.000228
 3200 Fit       0.001681
 3201 Fit       0.003399
 3202 Fit       0.005013
 3203 Fit       0.006577
 3204 Fit       0.008084
 3205 Fit       0.009402
 3206 Fit       0.010163
 3207 Fit      -0.010290
 3208 Fit      -0.007410
 3209 Fit      -0.004676
 3210 Fit      -0.002264
 3211 Fit      -0.000189
 3212 Fit       0.001597
 3213 Fit       0.003156
 3214 Fit       0.004526
 3215 Fit       0.005690
 3216 Fit       0.006520
 3217 Fit       0.006707
 3218 Fit       0.005708
 3219 Fit      -0.008575
 3220 Fit      -0.007930
 3221 Fit      -0.006249
 3222 Fit      -0.004162
 3223 Fit      -0.002086
 3224 Fit      -0.000211
 3225 Fit       0.001404
 3226 Fit       0.002748
 3227 Fit       0.003792
 3228 Fit       0.004427
 3229 Fit       0.004418
 3230 Fit       0.003406
 3231 Fit       0.001104
 3232 Fit      -0.002250
 3233 Fit      -0.005183
 3234 Fit      -0.004659
 3235 Fit      -0.003298
 3236 Fit      -0.001607
 3237 Fit       0.000033
 3238 Fit       0.001416
 3239 Fit       0.002414
 3240 Fit       0.002872
 3241 Fit       0.002550
 3242 Fit       0.001233
 3243 Fit      -0.000922
 3244 Fit      -0.003057
 3245 Fit      -0.004060
 3246 Fit      -0.003675
 3247 Fit      -0.002808
 3248 Fit      -0.002604
 3249 Fit      -0.003418
 3250 Fit      -0.004610
 3251 Fit      -0.003035
 3252 Fit      -0.002379
 3253 Fit      -0.001025
 3254 Fit       0.000385
 3255 Fit       0.001337
 3256 Fit       0.001448
 3257 Fit       0.000501
 3258 Fit      -0.001094
 3259 Fit      -0.002196
 3260 Fit      -0.002313
 3261 Fit      -0.002309
 3262 Fit      -0.002774
 3263 Fit      -0.001653
 3264 Fit      -0.000717
 3265 Fit       0.000272
 3266 Fit      -0.000084
 3267 Fit      -0.001182
 3268 Fit      -0.001634
 3269 Fit      -0.000739
 3270 Fit      -0.000743
 3271 Fit      -0.001655
 3272 Fit      -0.000720
 3273 Fit       0.000268
 3274 Fit      -0.000089
 3275 Fit      -0.001186
 3276 Fit      -0.001637
 3277 Fit      -0.003037
 3278 Fit      -0.002381
 3279 Fit      -0.001027
 3280 Fit       0.000382
 3281 Fit       0.001333
 3282 Fit       0.001442
 3283 Fit       0.000495
 3284 Fit      -0.001100
 3285 Fit      -0.002201
 3286 Fit      -0.002316
 3287 Fit      -0.002312
 3288 Fit      -0.002775
 3289 Fit      -0.005184
 3290 Fit      -0.004661
 3291 Fit      -0.003299
 3292 Fit      -0.001609
 3293 Fit       0.000030
 3294 Fit       0.001412
 3295 Fit       0.002410
 3296 Fit       0.002866
 3297 Fit       0.002543
 3298 Fit       0.001225
 3299 Fit      -0.000930
 3300 Fit      -0.003064
 3301 Fit      -0.004066
 3302 Fit      -0.003679
 3303 Fit      -0.002811
 3304 Fit      -0.002606
 3305 Fit      -0.003419
 3306 Fit      -0.004611
 3307 Fit      -0.008575
 3308 Fit      -0.007931
 3309 Fit      -0.006250
 3310 Fit      -0.004163
 3311 Fit      -0.002088
 3312 Fit      -0.000214
 3313 Fit       0.001401
 3314 Fit       0.002745
 3315 Fit       0.003787
 3316 Fit       0.004421
 3317 Fit       0.004410
 3318 Fit       0.003397
 3319 Fit       0.001094
 3320 Fit      -0.002260
 3321 Fit      -0.010291
 3322 Fit      -0.007411
 3323 Fit      -0.004678
 3324 Fit      -0.002266
 3325 Fit      -0.000192
 3326 Fit       0.001594
 3327 Fit       0.003152
 3328 Fit       0.004521
 3329 Fit       0.005684
 3330 Fit       0.006513
 3331 Fit       0.006697
 3332 Fit       0.005696
 3333 Fit      -0.011927
 3334 Fit      -0.008191
 3335 Fit      -0.005049
 3336 Fit      -0.002433
 3337 Fit      -0.000230
 3338 Fit       0.001678
 3339 Fit       0.003396
 3340 Fit       0.005010
 3341 Fit       0.006572
 3342 Fit       0.008077
 3343 Fit       0.009393
 3344 Fit       0.010151
 3345 Fit      -0.011737
 3346 Fit      -0.007556
 3347 Fit      -0.004256
 3348 Fit      -0.001581
 3349 Fit       0.000677
 3350 Fit       0.002686
 3351 Fit       0.004588
 3352 Fit       0.006511
 3353 Fit       0.008559
 3354 Fit       0.010798
 3355 Fit       0.013174
 3356 Fit      -0.010554
 3357 Fit      -0.006434
 3358 Fit      -0.003227
 3359 Fit      -0.000605
 3360 Fit       0.001668
 3361 Fit       0.003786
 3362 Fit       0.005921
 3363 Fit       0.008245
 3364 Fit       0.010944
 3365 Fit       0.014215
 3366 Fit      -0.013120
 3367 Fit      -0.008166
 3368 Fit      -0.004446
 3369 Fit      -0.001485
 3370 Fit       0.001035
 3371 Fit       0.003360
 3372 Fit       0.005706
 3373 Fit       0.008295
 3374 Fit       0.011395
 3375 Fit      -0.008227
 3376 Fit      -0.004229
 3377 Fit      -0.001070
 3378 Fit       0.001649
 3379 Fit       0.004236
 3380 Fit       0.007197
 3381 Fit       0.006052
 3382 Fit       0.002926
 3383 Fit       0.010488
 3384 Fit       0.010848
 3385 Fit       0.010213
 3386 Fit       0.008467
 3387 Fit       0.005519
 3388 Fit       0.001310
 3389 Fit       0.013009
 3390 Fit       0.013676
 3391 Fit       0.013733
 3392 Fit       0.013075
 3393 Fit       0.011624
 3394 Fit       0.009309
 3395 Fit       0.006055
 3396 Fit       0.001785
 3397 Fit       0.015103
 3398 Fit       0.015834
 3399 Fit       0.016100
 3400 Fit       0.015819
 3401 Fit       0.014934
 3402 Fit       0.013391
 3403 Fit       0.011134
 3404 Fit       0.008094
 3405 Fit       0.004191
 3406 Fit       0.016601
 3407 Fit       0.017395
 3408 Fit       0.017801
 3409 Fit       0.017770
 3410 Fit       0.017266
 3411 Fit       0.016253
 3412 Fit       0.014693
 3413 Fit       0.012539
 3414 Fit       0.009735
 3415 Fit       0.006212
 3416 Fit       0.001880
 3417 Fit       0.018088
 3418 Fit       0.018772
 3419 Fit       0.019057
 3420 Fit       0.018920
 3421 Fit       0.018338
 3422 Fit       0.017280
 3423 Fit       0.015711
 3424 Fit       0.013589
 3425 Fit       0.010862
 3426 Fit       0.007461
 3427 Fit       0.003300
 3428 Fit       0.018168
 3429 Fit       0.019086
 3430 Fit       0.019626
 3431 Fit       0.019785
 3432 Fit       0.019551
 3433 Fit       0.018903
 3434 Fit       0.017816
 3435 Fit       0.016259
 3436 Fit       0.014194
 3437 Fit       0.011574
 3438 Fit       0.008337
 3439 Fit       0.004405
 3440 Fit      -0.000323
 3441 Fit       0.019080
 3442 Fit       0.019730
 3443 Fit       0.020013
 3444 Fit       0.019926
 3445 Fit       0.019451
 3446 Fit       0.018568
 3447 Fit       0.017250
 3448 Fit       0.015466
 3449 Fit       0.013175
 3450 Fit       0.010327
 3451 Fit       0.006856
 3452 Fit       0.002679
 3453 Fit       0.018170
 3454 Fit       0.019088
 3455 Fit       0.019627
 3456 Fit       0.019787
 3457 Fit       0.019552
 3458 Fit       0.018904
 3459 Fit       0.017817
 3460 Fit       0.016260
 3461 Fit       0.014196
 3462 Fit       0.011576
 3463 Fit       0.008339
 3464 Fit       0.004407
 3465 Fit      -0.000321
 3466 Fit       0.018091
 3467 Fit       0.018774
 3468 Fit       0.019059
 3469 Fit       0.018923
 3470 Fit       0.018340
 3471 Fit       0.017282
 3472 Fit       0.015714
 3473 Fit       0.013593
 3474 Fit       0.010865
 3475 Fit       0.007465
 3476 Fit       0.003304
 3477 Fit       0.016606
 3478 Fit       0.017399
 3479 Fit       0.017805
 3480 Fit       0.017774
 3481 Fit       0.017270
 3482 Fit       0.016258
 3483 Fit       0.014698
 3484 Fit       0.012544
 3485 Fit       0.009740
 3486 Fit       0.006217
 3487 Fit       0.001886
 3488 Fit       0.015109
 3489 Fit       0.015839
 3490 Fit       0.016106
 3491 Fit       0.015824
 3492 Fit       0.014939
 3493 Fit       0.013397
 3494 Fit       0.011140
 3495 Fit       0.008101
 3496 Fit       0.004199
 3497 Fit       0.013016
 3498 Fit       0.013683
 3499 Fit       0.013740
 3500 Fit       0.013082
 3501 Fit       0.011631
 3502 Fit       0.009317
 3503 Fit       0.006064
 3504 Fit       0.001795
 3505 Fit       0.010497
 3506 Fit       0.010857
 3507 Fit       0.010222
 3508 Fit       0.008476
 3509 Fit       0.005529
 3510 Fit       0.001322
 3511 Fit       0.007208
 3512 Fit       0.006063
 3513 Fit       0.002938
 3514 Fit       0.002933
 3515 Fit       0.007204
 3516 Fit       0.006059
 3517 Fit       0.005525
 3518 Fit       0.001317
 3519 Fit       0.010494
 3520 Fit       0.010854
 3521 Fit       0.010219
 3522 Fit       0.008473
 3523 Fit       0.007809
 3524 Fit       0.004058
 3525 Fit       0.013414
 3526 Fit       0.013793
 3527 Fit       0.013503
 3528 Fit       0.012457
 3529 Fit       0.010584
 3530 Fit       0.009721
 3531 Fit       0.006261
 3532 Fit       0.001892
 3533 Fit       0.015522
 3534 Fit       0.016035
 3535 Fit       0.016035
 3536 Fit       0.015458
 3537 Fit       0.014251
 3538 Fit       0.012360
 3539 Fit       0.011226
 3540 Fit       0.008072
 3541 Fit       0.004157
 3542 Fit       0.017045
 3543 Fit       0.017653
 3544 Fit       0.017845
 3545 Fit       0.017582
 3546 Fit       0.016828
 3547 Fit       0.015547
 3548 Fit       0.013696
 3549 Fit       0.012307
 3550 Fit       0.009253
 3551 Fit       0.005484
 3552 Fit       0.000904
 3553 Fit       0.017606
 3554 Fit       0.018480
 3555 Fit       0.018967
 3556 Fit       0.019044
 3557 Fit       0.018688
 3558 Fit       0.017872
 3559 Fit       0.016563
 3560 Fit       0.014724
 3561 Fit       0.012958
 3562 Fit       0.010038
 3563 Fit       0.006465
 3564 Fit       0.002149
 3565 Fit       0.018676
 3566 Fit       0.019404
 3567 Fit       0.019755
 3568 Fit       0.019719
 3569 Fit       0.019281
 3570 Fit       0.018417
 3571 Fit       0.017099
 3572 Fit       0.015294
 3573 Fit       0.013175
 3574 Fit       0.010327
 3575 Fit       0.006856
 3576 Fit       0.002679
 3577 Fit       0.019080
 3578 Fit       0.019729
 3579 Fit       0.020013
 3580 Fit       0.019926
 3581 Fit       0.019451
 3582 Fit       0.018568
 3583 Fit       0.017250
 3584 Fit       0.015466
 3585 Fit       0.012958
 3586 Fit       0.010038
 3587 Fit       0.006464
 3588 Fit       0.002149
 3589 Fit       0.018675
 3590 Fit       0.019404
 3591 Fit       0.019754
 3592 Fit       0.019719
 3593 Fit       0.019280
 3594 Fit       0.018416
 3595 Fit       0.017099
 3596 Fit       0.015294
 3597 Fit       0.012306
 3598 Fit       0.009252
 3599 Fit       0.005483
 3600 Fit       0.000903
 3601 Fit       0.017605
 3602 Fit       0.018479
 3603 Fit       0.018966
 3604 Fit       0.019043
 3605 Fit       0.018687
 3606 Fit       0.017871
 3607 Fit       0.016563
 3608 Fit       0.014723
 3609 Fit       0.011224
 3610 Fit       0.008070
 3611 Fit       0.004155
 3612 Fit       0.017044
 3613 Fit       0.017651
 3614 Fit       0.017844
 3615 Fit       0.017581
 3616 Fit       0.016827
 3617 Fit       0.015546
 3618 Fit       0.013695
 3619 Fit       0.009719
 3620 Fit       0.006259
 3621 Fit       0.001890
 3622 Fit       0.015521
 3623 Fit       0.016033
 3624 Fit       0.016034
 3625 Fit       0.015457
 3626 Fit       0.014250
 3627 Fit       0.012358
 3628 Fit       0.007807
 3629 Fit       0.004055
 3630 Fit       0.013412
 3631 Fit       0.013791
 3632 Fit       0.013501
 3633 Fit       0.012456
 3634 Fit       0.010582
 3635 Fit       0.005523
 3636 Fit       0.001314
 3637 Fit       0.010491
 3638 Fit       0.010852
 3639 Fit       0.010217
 3640 Fit       0.008470
 3641 Fit       0.002930
 3642 Fit       0.007201
 3643 Fit       0.006056
 -----------------------------------------------------------------
 Leave Link  602 at Wed Feb 19 11:14:04 2020, MaxMem= 1073741824 cpu:       1.8
 B after Tr=    -0.000022    0.000577    1.454118
         Rot=   -0.306801   -0.306612    0.637113    0.637141 Ang= 215.73 deg.
 Final structure in terms of initial Z-matrix:
 C
 C,1,b2
 O,2,b3,1,a3
 O,1,b4,2,a4,3,t4,0
 H,1,b5,2,a5,3,t5,0
 H,1,b6,2,a6,3,t6,0
 H,2,b7,1,a7,4,t7,0
 H,2,b8,1,a8,4,t8,0
 H,3,b9,2,a9,1,t9,0
 H,4,b10,1,a10,2,t10,0
      Variables:
 b2=1.51303675
 b3=1.40289453
 a3=107.25075282
 b4=1.40289321
 a4=107.25097261
 t4=179.99992549
 b5=1.08673558
 a5=109.22458093
 t5=-58.97840427
 b6=1.08673344
 a6=109.22416069
 t6=58.97941294
 b7=1.08673507
 a7=109.22419964
 t7=58.97852761
 b8=1.0867366
 a8=109.22391047
 t8=-58.97920007
 b9=0.94625434
 a9=109.73599408
 t9=-179.98686071
 b10=0.94625409
 a10=109.73652019
 t10=179.99551371

 Test job not archived.
 1\1\GINC-SCHRODINGER\FOpt\RHF\6-31G(d)\C2H6O2\DGOMES\19-Feb-2020\0\\#H
 F/6-31G* SCF=tight Test Pop=MK iop(6/33=2) iop(6/42=6) opt\\remark lin
 e goes here\\0,1\C,0.0275031152,0.0004862157,0.0136625751\C,-0.0273612
 096,0.0002384957,1.5257042609\O,1.2964586113,-0.0000691837,1.990046866
 1\O,-1.2963136756,0.0007921531,-0.4506846702\H,0.5691121406,0.87981944
 95,-0.324607954\H,0.5687928499,-0.8789287878,-0.3248994401\H,-0.568967
 9237,-0.8790981882,1.8639678709\H,-0.5686575708,0.8796547485,1.8642625
 945\H,1.3031832024,-0.0004355509,2.9362772416\H,-1.3030433402,0.001023
 9557,-1.3969147965\\Version=EM64L-G09RevA.01\State=1-A\HF=-228.9224233
 \RMSD=8.212e-09\RMSF=6.180e-05\Dipole=-0.0000033,-0.0000986,0.0000013\
 Quadrupole=-5.0920287,-1.4320051,6.5240338,0.0000164,0.6322777,-0.0024
 606\PG=C01 [X(C2H6O2)]\\@


 EVERYTHING'S GOT A MORAL, IF ONLY YOU CAN FIND IT.

                                    -- LEWIS CARROL, ALICE IN WONDERLAND
 Job cpu time:  0 days  0 hours  4 minutes 57.9 seconds.
 File lengths (MBytes):  RWF=      5 Int=      0 D2E=      0 Chk=      1 Scr=      1
 Normal termination of Gaussian 09 at Wed Feb 19 11:14:04 2020.
